 T
           1
           2
         500
   4.0883542254326333E-003   4.0883542254326333E-003   4.0883542254328553E-003   4.0883542254328553E-003   1.2255603924724356E-002   1.2255603924724356E-002   1.2255603924724801E-002   1.2255603925201974E-002   3.4136583138137055E-002   3.4136583138138610E-002   3.4136583138138832E-002   4.1697710060486504E-002   4.1697710060486948E-002   4.1773828533131274E-002   4.1938193568041404E-002   4.2712752362579653E-002   4.2712752362579876E-002   4.2939349828632345E-002   4.2939349828632789E-002   5.0537873634931563E-002   5.0537873634932007E-002   7.0392663356596774E-002   7.1352300747371089E-002   7.1352300747374642E-002   7.3498774712294379E-002   7.3498774716211690E-002   7.4517582885545330E-002   7.4517582958785411E-002   7.8584836139767855E-002   7.9595802291561712E-002   7.9595802448604536E-002   8.1747904543446159E-002   8.1747906221899092E-002   8.2709915069103523E-002   8.2709991141644013E-002  0.10250185977698423       0.10250185977698467       0.11002720503210961       0.11022614972006495       0.11067770579620850       0.11108206237864793       0.11127355201816158       0.11888873051399718       0.11889011233433466       0.14039004485808482       0.14040174061047694       0.14855588713722234       0.14864472592026789       0.16469197781230260       0.16469198093792659       0.17064872735812764       0.17179664699658415       0.17502266354924401       0.17519923884816802       0.18191632199643815       0.19468373565097763       0.20207812964499072       0.20232773676112692       0.20393502323646473       0.20607057486281621       0.20995952753622404       0.21223018147080785       0.21401066418044556       0.21809475790103949       0.21974314226303115       0.22540123419868840       0.22634460130324352       0.22828277035052946       0.23324744073292725       0.23592124372949552       0.23839202457236786       0.24208166782400542       0.24776001841321449       0.24985717528536977       0.25395544830267491       0.25657323634374807       0.26283389241148325       0.26400035653642684       0.27114595030218935       0.27350175847650005       0.27619320725356689       0.28108019897125480       0.28496685571223646       0.28726378579438938       0.29086470888842797       0.29465612052335222       0.30690295059345596       0.31361662367508214       0.31824730535619339       0.31846907101462185       0.32312630503489248       0.32721674989843064       0.35353467372345371       0.35999010792145225       0.36531814080475389       0.36850159914108005       0.37036540678459873       0.37535990136522623       0.37666260364865756       0.38742204652527223       0.38942185336715851       0.39320705932129529       0.39826490990273400       0.40705207990561187       0.41289540947306680       0.41669123571540090       0.42599663545931987       0.43150954017332266       0.43763623821817110       0.43986347909855872       0.44809568020438983       0.45685915593363258       0.46060120741796129       0.46616838153072648       0.46788209318931928       0.47861652956851075       0.48541075309727888       0.50089167177372529       0.50683314200082585       0.51163154817555290       0.51867011330312773       0.52994352736573380       0.53409572649100334       0.53993922480635415       0.54860090659535210       0.55344041701514168       0.55982956407972773       0.56490484667595431       0.57086502367769065       0.57678596671868587       0.58229737209468180       0.58892512139649589       0.59787696906319443       0.60098808464208209       0.60858041451003664       0.61740962677612443       0.62328212293834806       0.62772700263632530       0.63522820744893260       0.64186441336834288       0.65519309044440444       0.65944474699882827       0.66490356713023857       0.67118378907035536       0.68677213838644102       0.69021705922982513       0.69901975237767489       0.70970483830110254       0.71287458521972769       0.72505242736857789       0.73010646689822745       0.73432275491384968       0.74477843791835130       0.75048999340008427       0.76155001789322396       0.77096918698824901       0.78240043032719020       0.78577318619597292       0.79696701735595377       0.80500719397067078       0.81554722082427300       0.81933816187210706       0.82762294532262881       0.83687299929200487       0.84983310943494295       0.85707787422373538       0.86083167711829112       0.87304963360811350       0.87816105959942070       0.88460395876856479       0.89381302289893172       0.89712065409144814       0.90978047357682967       0.91786940891633939       0.92726302075158384       0.93894934655828199       0.94897636802005747       0.95219981360426675       0.96150000669892666       0.97762732239554295       0.98891315700367044       0.99575467938066076        1.0045570789601483        1.0129786628730792        1.0179069575375896        1.0266071385788378        1.0376019302971049        1.0454123785449958        1.0542963440024666        1.0581485679859219        1.0723621562561556        1.0808750593462682        1.0882504380040172        1.0939979292400415        1.1102341416256420        1.1189365681077128        1.1255945949829846        1.1359131365238679        1.1463451949448229        1.1568447247897922        1.1651338156901441        1.1712144630054917        1.1824420014670782        1.1898217616554769        1.1959803458999811        1.2105661509929586        1.2170511935618811        1.2286876400382951        1.2392097584097894        1.2522659657397435        1.2589319725690147        1.2699277016234161        1.2730462391053603        1.2842533903176911        1.2918156636489093        1.2995304500819249        1.3111671360784518        1.3208582235163062        1.3308520911141641        1.3441129674218388        1.3519484485210895        1.3631004282839216        1.3710416451351239        1.3805304387534187        1.3863006380421914        1.3971562386070335        1.4055391604239982        1.4130028314381169        1.4263628057961693        1.4346408374792854        1.4443401694486957        1.4524230703201360        1.4617327353455798        1.4697688995984477        1.4816237129905510        1.4923910697395992        1.5073264717775947        1.5129632891040601        1.5276406884982492        1.5373387266004539        1.5442025177896830        1.5502063107677380        1.5573274316447165        1.5693537763359353        1.5810136528985279        1.5918847011777593        1.6073376232471415        1.6146155407175322        1.6316699907137522        1.6366838045451306        1.6479495716999628        1.6557152591819611        1.6627745029298526        1.6716376788966523        1.6813834035332571        1.6909707726057315        1.7025881386151598        1.7123928490937870        1.7238043677415149        1.7317117854865931        1.7408643401440338        1.7494592881125173        1.7584427166084373        1.7674946907121005        1.7754082972194076        1.7874582430708883        1.7995088973084252        1.8071522804438434        1.8201083008208954        1.8337265595918664        1.8377639403360349        1.8452353475997336        1.8565666521177777        1.8652736063129298        1.8709952418131393        1.8855941290655771        1.8950433492429197        1.9012385119505952        1.9092159640478090        1.9200998943039469        1.9289622647150779        1.9387432955771882        1.9466960907229336        1.9642410294923052        1.9703256511532512        1.9776187021609186        1.9894760098831792        1.9991446242207331        2.0082665067117640        2.0162271995162393        2.0247233937549933        2.0360942315290047        2.0424626090578020        2.0545038278884986        2.0647466301931927        2.0738500230932191        2.0820984654580181        2.0932471184388772        2.1022612414669557        2.1102506893680766        2.1210136958592209        2.1267368458614748        2.1380569072958044        2.1447017927056704        2.1524496998171800        2.1620822828941368        2.1732340752451633        2.1800916695057904        2.1929628298327857        2.1991256673094379        2.2084150751675224        2.2157279133431644        2.2297161732069060        2.2406163186856429        2.2474520277818857        2.2572885824290005        2.2644737902771426        2.2687390316000293        2.2772963563355542        2.2878098351576179        2.2989270397332806        2.3081554783549940        2.3149155540884299        2.3207513861741025        2.3349383993749608        2.3423353635569626        2.3504864411974338        2.3608311267529567        2.3701784523830027        2.3774725434414963        2.3886859072308599        2.3944426258955342        2.4074008506005651        2.4136113349320656        2.4223744090649957        2.4344474081181233        2.4423563418049437        2.4497886776296243        2.4559960732556614        2.4681331237425379        2.4773139374559396        2.4833525510951202        2.4936264672096677        2.5051427660645085        2.5089817557846272        2.5178305707531909        2.5267807610787574        2.5338096497167379        2.5411781228682790        2.5516049437781443        2.5561502078829079        2.5698895687251446        2.5749413091220883        2.5807375020060266        2.5884693362393665        2.6000905528139224        2.6036522354785818        2.6122754680007945        2.6220636959595591        2.6291585376131654        2.6344932566305492        2.6462048684732578        2.6511608727032843        2.6552237647432082        2.6645101108250131        2.6754413554931320        2.6785809766106201        2.6843161391766626        2.6930525796269777        2.6999968667703471        2.7061067566000170        2.7153052321463775        2.7210951120243752        2.7283460497284175        2.7371499325871032        2.7439303620361342        2.7545343108537836        2.7592033526977917        2.7648532997975410        2.7730039352759546        2.7829713305214421        2.7849543120843165        2.7924068510848690        2.7956598886017323        2.8018697658898368        2.8189757210044806        2.8272188731120025        2.8326630427215327        2.8374132356066251        2.8417959922709981        2.8432377748559126        2.8555243161451749        2.8611928700157168        2.8652293951452994        2.8732823398906535        2.8798503530244197        2.8846857213353299        2.8894384523404639        2.8953426642432745        2.8992941179579934        2.9056092416680399        2.9109427753712223        2.9154764005209559        2.9278104957210771        2.9319187289595918        2.9337756668790025        2.9390810550158988        2.9453769520166881        2.9508131858295723        2.9592763430068212        2.9761296581178582        2.9785697352329716        2.9799846987180523        2.9858982775447580        2.9905684694854782        2.9907717506833817        2.9975203911187989        3.0096013813597495        3.0152642909250629        3.0179860090929829        3.0194748741551023        3.0250370466176424        3.0282082688323038        3.0330812897489214        3.0401337149683165        3.0413950170753248        3.0476755145376648        3.0501079616326257        3.0534947240528152        3.0566099372751823        3.0622539160759374        3.0659770127821031        3.0676634826915770        3.0682757806724190        3.0710179431170834        3.0779251494457363        3.0788615619746507        3.0861751910824315        3.0921555136341166        3.0941599578498593        3.0944340227487421        3.1003349483163083        3.1020004751321490        3.1020800183715682        3.1043443118283363        3.1095467816424285        3.1121585849948010        3.1225038337729920        3.1290340031635306        3.1320530549474879        3.1335998980938271        3.1397180078413705        3.1555640083325112        3.1555640083384331        3.1637128016585851        3.1637181044427902        3.1852952179089842        3.1852952179089913        3.1928719000918537        3.1930797199205809        3.1937335817876309        3.1938591887418708        3.1941088753989142        3.2016833841903640        3.2016834009333870        3.2214338441618411        3.2224178973378224        3.2224179260297703        3.2245616688775720        3.2245629037429451        3.2253701773879273        3.2255561209811670        3.2296264874530758        3.2306637233109150        3.2306657566199828        3.2328077250862757        3.2328078547605887        3.2337426914703840        3.2337477648014761        3.2353562838421155        3.2536464396724467        3.2536464396724472        3.2592529341600391        3.2612025445469719        3.2612025445469728        3.2614511007637024        3.2622253857703356        3.2622253857703374        3.2624414847923826        3.2624414847923831        3.2696192528940933        3.2700475201279344        3.2700475201279349        3.2918638808706211        3.2918638808706220        3.2918638808706233        3.3000222981636407        3.3000311222472654        3.3000311222472671        3.3000311222472680     
        (3.42759551803980048E-004,-0.0000000000000000)        (3.48352168160064425E-003,-0.0000000000000000)        (3.05341166704895754E-003,-0.0000000000000000)         (5.11897077205877632E-004,0.0000000000000000)        (5.05383512539965737E-009,-0.0000000000000000)        (1.77179619293133913E-008,-0.0000000000000000)        (2.63102515894994842E-008,-0.0000000000000000)         (9.91294736371018028E-031,0.0000000000000000)        (1.17333529389826907E-004,-0.0000000000000000)        (5.96176177934642105E-003,-0.0000000000000000)         (3.17490948415488361E-002,0.0000000000000000)        (9.32827732880544180E-005,-0.0000000000000000)         (2.56182587408393629E-005,0.0000000000000000)               (0.0000000000000000,0.0000000000000000)         (8.95346683578875888E-031,0.0000000000000000)        (4.90684268940514912E-008,-0.0000000000000000)        (6.61237316221960393E-009,-0.0000000000000000)        (8.19680511764147653E-006,-0.0000000000000000)         (9.06818853517984876E-005,0.0000000000000000)         (2.31416960371228956E-010,0.0000000000000000)         (5.01788381965878686E-010,0.0000000000000000)         (7.14895950539182081E-033,0.0000000000000000)        (4.18590266566841445E-012,-0.0000000000000000)        (6.55375012245669301E-006,-0.0000000000000000)        (3.75336221472238446E-018,-0.0000000000000000)        (5.35582563684494741E-006,-0.0000000000000000)        (1.18800224145265063E-021,-0.0000000000000000)         (4.29840750712971524E-009,0.0000000000000000)         (1.62948051747999714E-032,0.0000000000000000)         (1.74583944454222498E-021,0.0000000000000000)        (3.12972002909649228E-009,-0.0000000000000000)        (9.44411577451880773E-025,-0.0000000000000000)         (6.45282867145774040E-010,0.0000000000000000)         (4.26167310438883340E-014,0.0000000000000000)         (1.65213431150337194E-031,0.0000000000000000)         (6.25906302926887100E-005,0.0000000000000000)         (2.06206604220666252E-007,0.0000000000000000)        (1.82937730328156942E-007,-0.0000000000000000)         (2.97842340345760626E-033,0.0000000000000000)         (5.48952191845958564E-034,0.0000000000000000)         (9.65492035987213188E-011,0.0000000000000000)        (1.26305789390292687E-007,-0.0000000000000000)        (6.84299813591127503E-034,-0.0000000000000000)        (7.27881169004501616E-013,-0.0000000000000000)        (2.31913285067192284E-035,-0.0000000000000000)         (7.36182433641509074E-012,0.0000000000000000)         (4.70806640432968589E-011,0.0000000000000000)        (5.56993646395564334E-036,-0.0000000000000000)              (0.11981090039327487,0.0000000000000000)        (4.60293766699631136E-015,-0.0000000000000000)        (1.48474478506318633E-002,-0.0000000000000000)        (1.58645956301891163E-027,-0.0000000000000000)        (2.30630120446245752E-006,-0.0000000000000000)         (2.63426573317101067E-003,0.0000000000000000)        (5.96367244629714547E-005,-0.0000000000000000)         (2.72872862068402385E-003,0.0000000000000000)         (3.67698057151282800E-004,0.0000000000000000)        (8.45494113200938836E-006,-0.0000000000000000)         (1.09680943409260916E-004,0.0000000000000000)         (5.48013605723231667E-007,0.0000000000000000)        (7.90107714604541844E-005,-0.0000000000000000)        (2.68529129160314866E-004,-0.0000000000000000)        (6.06509836142586069E-007,-0.0000000000000000)        (3.20667944006872716E-003,-0.0000000000000000)         (1.11364936929319467E-005,0.0000000000000000)        (1.15933619620374093E-003,-0.0000000000000000)         (3.76172546147522527E-004,0.0000000000000000)        (2.95522590317663514E-008,-0.0000000000000000)         (8.44668036822017933E-006,0.0000000000000000)         (4.37583452115076579E-006,0.0000000000000000)        (4.07830773639230061E-005,-0.0000000000000000)         (8.80570580320734838E-007,0.0000000000000000)         (2.40958283425989463E-003,0.0000000000000000)        (1.76017427227597475E-004,-0.0000000000000000)        (8.02019815644799104E-005,-0.0000000000000000)         (1.66302754535471533E-005,0.0000000000000000)         (8.70271493420382226E-006,0.0000000000000000)        (1.05859045100593950E-006,-0.0000000000000000)         (1.05338172785179501E-006,0.0000000000000000)         (2.76207124869630998E-008,0.0000000000000000)        (8.13181616332114162E-006,-0.0000000000000000)         (1.01237780771541274E-007,0.0000000000000000)        (1.16010179456736201E-006,-0.0000000000000000)        (9.99614908112081337E-008,-0.0000000000000000)        (2.51612885122460256E-009,-0.0000000000000000)        (5.72500659222314576E-008,-0.0000000000000000)         (4.10940982376965569E-007,0.0000000000000000)        (6.01934497046672553E-009,-0.0000000000000000)         (8.40987106973637717E-008,0.0000000000000000)         (9.88029093675788043E-005,0.0000000000000000)        (9.42392161266736172E-012,-0.0000000000000000)        (2.95517273889076451E-006,-0.0000000000000000)        (3.08621197475567940E-006,-0.0000000000000000)         (3.48168484178803324E-004,0.0000000000000000)         (2.22759920971076609E-004,0.0000000000000000)         (1.62999915280158386E-006,0.0000000000000000)         (1.52154042984557496E-006,0.0000000000000000)        (3.07068031970907402E-005,-0.0000000000000000)         (7.66628094348726691E-007,0.0000000000000000)        (9.64027090744350081E-005,-0.0000000000000000)         (6.02555019811105251E-007,0.0000000000000000)         (1.08329374720686313E-005,0.0000000000000000)         (2.17294386441454869E-007,0.0000000000000000)         (3.45055125111302097E-009,0.0000000000000000)        (1.51622256677469691E-007,-0.0000000000000000)         (2.51262924920008972E-007,0.0000000000000000)        (1.19437649699654837E-007,-0.0000000000000000)         (4.85609737521897102E-006,0.0000000000000000)        (1.98284463341534649E-005,-0.0000000000000000)         (3.49732558982526878E-006,0.0000000000000000)        (5.49805752522526069E-006,-0.0000000000000000)        (9.89525103082518947E-008,-0.0000000000000000)        (1.04593317446408196E-004,-0.0000000000000000)         (1.11522030351400169E-005,0.0000000000000000)         (5.41361921924654258E-007,0.0000000000000000)         (2.75898813696448963E-008,0.0000000000000000)         (6.33984944526011170E-007,0.0000000000000000)        (1.34741022274300626E-002,-0.0000000000000000)        (4.38732480012308731E-003,-0.0000000000000000)         (3.13421860471985528E-004,0.0000000000000000)        (7.04582732063236620E-005,-0.0000000000000000)        (6.41446678936741623E-004,-0.0000000000000000)        (3.91439651964735119E-004,-0.0000000000000000)        (2.87673285254025596E-004,-0.0000000000000000)         (1.50118754452107208E-004,0.0000000000000000)        (3.57419783958307492E-004,-0.0000000000000000)         (2.53151283145727811E-003,0.0000000000000000)         (2.84487836539590896E-004,0.0000000000000000)              (0.10615433207302173,0.0000000000000000)         (3.05537249608981328E-002,0.0000000000000000)         (9.15538066159229079E-003,0.0000000000000000)        (8.29945712805656849E-004,-0.0000000000000000)         (2.64841613436091715E-003,0.0000000000000000)         (2.51660805620611619E-003,0.0000000000000000)         (1.04940460768132961E-003,0.0000000000000000)         (1.15213133672908692E-003,0.0000000000000000)        (4.25023750441815961E-004,-0.0000000000000000)         (8.46143450573932053E-003,0.0000000000000000)        (1.99318210137889028E-004,-0.0000000000000000)        (2.40758642695996616E-004,-0.0000000000000000)         (3.37310514189348822E-003,0.0000000000000000)         (1.64096360287652610E-003,0.0000000000000000)        (2.77313980998421716E-004,-0.0000000000000000)        (1.86788705463069263E-005,-0.0000000000000000)         (4.14827030685061037E-005,0.0000000000000000)        (7.74941697897205757E-004,-0.0000000000000000)        (3.80890139614832764E-005,-0.0000000000000000)         (2.19911337355589023E-005,0.0000000000000000)        (8.57680303373683963E-005,-0.0000000000000000)        (3.17894757845031618E-005,-0.0000000000000000)         (2.38846606815485850E-004,0.0000000000000000)        (4.36065203897124335E-003,-0.0000000000000000)        (1.92897725378000511E-004,-0.0000000000000000)        (6.84885360900536953E-005,-0.0000000000000000)        (1.02521998212367951E-004,-0.0000000000000000)        (3.02409009760799046E-005,-0.0000000000000000)        (3.85953867439982483E-005,-0.0000000000000000)         (4.94564150799976649E-005,0.0000000000000000)        (1.28240336116948902E-005,-0.0000000000000000)        (3.79710150385071483E-004,-0.0000000000000000)        (3.78163834390794458E-004,-0.0000000000000000)         (2.41671659396575127E-004,0.0000000000000000)        (7.23062989079888233E-005,-0.0000000000000000)         (1.77207017024685887E-004,0.0000000000000000)         (1.05807552518296820E-003,0.0000000000000000)         (2.96427376306742318E-004,0.0000000000000000)        (4.91982627972540991E-003,-0.0000000000000000)         (1.92477736658899106E-003,0.0000000000000000)        (1.34413874269200210E-002,-0.0000000000000000)        (3.92692630310351317E-004,-0.0000000000000000)        (1.08103488930686711E-003,-0.0000000000000000)        (3.87719658908398511E-004,-0.0000000000000000)        (3.96320077919243350E-005,-0.0000000000000000)        (1.16859638568753058E-005,-0.0000000000000000)        (9.65163140094084908E-006,-0.0000000000000000)        (6.97102365822022693E-005,-0.0000000000000000)         (2.00834608961930275E-004,0.0000000000000000)        (7.38436046056311761E-005,-0.0000000000000000)        (1.47661553004052877E-005,-0.0000000000000000)        (1.33494676225826667E-005,-0.0000000000000000)        (3.79857182503939985E-005,-0.0000000000000000)         (6.72775995512262247E-005,0.0000000000000000)        (9.91214196620433807E-003,-0.0000000000000000)        (7.11195996255248146E-003,-0.0000000000000000)        (2.29076882382148357E-003,-0.0000000000000000)         (1.18424647116935258E-003,0.0000000000000000)         (6.82329798954049911E-004,0.0000000000000000)        (5.15462974339724739E-004,-0.0000000000000000)        (1.64332817487946713E-003,-0.0000000000000000)         (4.73511090169460576E-004,0.0000000000000000)         (2.09560180855057973E-004,0.0000000000000000)        (3.56597747110943858E-004,-0.0000000000000000)        (6.76945703754287353E-004,-0.0000000000000000)        (5.91595601916666347E-004,-0.0000000000000000)         (5.38992600694605825E-005,0.0000000000000000)         (4.63417306334353539E-005,0.0000000000000000)         (1.90494718945146210E-004,0.0000000000000000)         (3.20425333874445935E-005,0.0000000000000000)         (9.55705639308319037E-005,0.0000000000000000)         (5.66084435524397698E-004,0.0000000000000000)         (1.79412840787840518E-003,0.0000000000000000)         (1.23838948425361432E-003,0.0000000000000000)         (1.09866050806001160E-003,0.0000000000000000)         (5.77805627301194958E-004,0.0000000000000000)        (1.28883044651737465E-003,-0.0000000000000000)        (2.67418453535756809E-004,-0.0000000000000000)        (2.92191085938065822E-004,-0.0000000000000000)        (8.93083239446573057E-005,-0.0000000000000000)        (2.83649664279065532E-004,-0.0000000000000000)         (3.07879992884393407E-004,0.0000000000000000)        (3.40884603093009897E-004,-0.0000000000000000)        (1.86899722910892113E-003,-0.0000000000000000)         (4.37011654201826735E-003,0.0000000000000000)         (3.05727399731472223E-003,0.0000000000000000)         (3.29865941580995137E-003,0.0000000000000000)         (4.43593321192851855E-003,0.0000000000000000)         (2.88889066961658622E-004,0.0000000000000000)        (1.84373183433194379E-004,-0.0000000000000000)        (7.51629401795327230E-004,-0.0000000000000000)         (1.21580737337050274E-004,0.0000000000000000)         (2.54072019606197807E-003,0.0000000000000000)        (1.02797692273227893E-003,-0.0000000000000000)         (2.72397154392369856E-003,0.0000000000000000)         (7.35402906161848960E-003,0.0000000000000000)        (1.21286759767243201E-003,-0.0000000000000000)         (1.14917071412503030E-003,0.0000000000000000)         (9.14506097289051099E-004,0.0000000000000000)        (5.61145772583148913E-004,-0.0000000000000000)         (2.32248685706113557E-004,0.0000000000000000)        (9.02819291599017627E-004,-0.0000000000000000)         (3.26821301415802345E-004,0.0000000000000000)         (8.72096214159306737E-005,0.0000000000000000)        (2.85320905204831704E-004,-0.0000000000000000)         (7.71368114146250806E-005,0.0000000000000000)        (1.05655899183308961E-005,-0.0000000000000000)         (1.20460276188918922E-005,0.0000000000000000)         (1.03738234622091939E-004,0.0000000000000000)        (1.23602987894114799E-005,-0.0000000000000000)         (2.41552032809727639E-004,0.0000000000000000)        (7.29506379191609473E-005,-0.0000000000000000)        (1.24944268483846553E-004,-0.0000000000000000)         (1.53590963473287207E-004,0.0000000000000000)         (3.87948086600775751E-005,0.0000000000000000)        (4.74308606024154944E-006,-0.0000000000000000)         (1.00467156734900624E-004,0.0000000000000000)         (9.65152071094868177E-006,0.0000000000000000)        (5.11480344031615793E-006,-0.0000000000000000)        (2.27833884587928174E-005,-0.0000000000000000)        (3.49046147756518099E-005,-0.0000000000000000)         (4.44313328341377849E-004,0.0000000000000000)         (2.95861927252392346E-004,0.0000000000000000)         (4.55254679145412693E-004,0.0000000000000000)         (3.63779225531991196E-004,0.0000000000000000)         (2.64544059206830268E-004,0.0000000000000000)         (3.36781420029912124E-005,0.0000000000000000)        (8.99701559928558303E-006,-0.0000000000000000)        (4.44055049640291203E-005,-0.0000000000000000)         (2.54155480069468480E-005,0.0000000000000000)         (2.47117150835627936E-004,0.0000000000000000)         (2.67324531108425675E-004,0.0000000000000000)         (5.41099595474896135E-004,0.0000000000000000)         (8.62298693813032908E-004,0.0000000000000000)         (2.00808278981381879E-004,0.0000000000000000)        (1.13937542837821938E-004,-0.0000000000000000)         (7.59523918573871493E-005,0.0000000000000000)         (1.70021983025094238E-005,0.0000000000000000)        (4.48768967152117504E-005,-0.0000000000000000)         (1.54282444589139969E-005,0.0000000000000000)         (1.64878729671947202E-005,0.0000000000000000)         (9.76170349760124996E-004,0.0000000000000000)         (2.12911288086273893E-004,0.0000000000000000)         (1.49011896534947236E-003,0.0000000000000000)         (3.69557060546676951E-004,0.0000000000000000)        (8.21965013961007421E-005,-0.0000000000000000)         (1.64580816367444998E-004,0.0000000000000000)         (5.68664176011487153E-004,0.0000000000000000)         (3.03550402531059733E-004,0.0000000000000000)         (1.68286805202840948E-004,0.0000000000000000)         (8.86089272615100368E-005,0.0000000000000000)         (2.54100402035467929E-005,0.0000000000000000)         (2.36035298454754481E-005,0.0000000000000000)        (7.99021127922013720E-006,-0.0000000000000000)         (6.97280844738083725E-006,0.0000000000000000)        (1.16168956371344545E-005,-0.0000000000000000)         (2.22834525030827335E-005,0.0000000000000000)         (7.92780143667591816E-006,0.0000000000000000)         (2.70765897695037412E-005,0.0000000000000000)         (7.92432000839103301E-006,0.0000000000000000)         (2.75793107083503699E-005,0.0000000000000000)         (4.43723899914091359E-005,0.0000000000000000)        (4.09601689385641682E-005,-0.0000000000000000)         (7.82874401551989718E-006,0.0000000000000000)         (1.09299275461741465E-005,0.0000000000000000)        (5.46705286034881349E-006,-0.0000000000000000)        (3.71590712252482762E-006,-0.0000000000000000)         (3.65474606239719274E-006,0.0000000000000000)        (4.59258330807813105E-006,-0.0000000000000000)        (6.32565334507188674E-006,-0.0000000000000000)         (1.44367637686496762E-005,0.0000000000000000)        (5.69758637395942564E-006,-0.0000000000000000)         (2.03290031910307337E-005,0.0000000000000000)         (2.95982231262999683E-005,0.0000000000000000)         (2.34504915463092143E-005,0.0000000000000000)         (9.86751730721682536E-006,0.0000000000000000)        (3.23735185570594952E-006,-0.0000000000000000)        (1.49885510589764046E-006,-0.0000000000000000)        (1.31377027669491280E-006,-0.0000000000000000)        (7.18970704525597759E-007,-0.0000000000000000)        (6.41612208193054322E-007,-0.0000000000000000)        (1.48377177480160994E-006,-0.0000000000000000)         (9.36043328379064037E-007,0.0000000000000000)         (1.45576144484336720E-007,0.0000000000000000)         (4.57058483311809855E-008,0.0000000000000000)        (1.58436518000790020E-007,-0.0000000000000000) 