            #Ek_l1_s1              Vk_l1_s1
  -4.076871031653E-01    2.765045839772E-01
  -8.289662683902E-02    1.475593040708E-01
  -1.347681223521E-02    6.655628477130E-02
   3.359620318768E-06    3.222454042189E-02
   1.350634754991E-02    6.662836037375E-02
   8.310017768182E-02    1.477426939832E-01
   4.083404789431E-01    2.764555087930E-01
