 T
           1
           2
         500
   3.8787975653806761E-003   3.8787975653811202E-003   3.8787975653820084E-003   1.1716575945210916E-002   1.1716575945211360E-002   1.1716575945219354E-002   2.6304486404133520E-002   2.6304486404134853E-002   2.6356488619173390E-002   3.2369617905725345E-002   3.2369617905726233E-002   3.2492856962500483E-002   3.7920888646458817E-002   3.7920888706007183E-002   3.8621373479551746E-002   3.8621373479553966E-002   4.4706594880749684E-002   4.4706594881036565E-002   5.1135483907269741E-002   5.6581000898296985E-002   5.6581000950322480E-002   6.0111763197284951E-002   6.5671560887139435E-002   6.6543790170930261E-002   7.3529407433223337E-002   7.5932114667849326E-002   8.2632928990527432E-002   8.2782439940326746E-002   8.8614288797641549E-002   9.4549072456884709E-002   9.5475096499960443E-002   9.7721699367528281E-002  0.10035570586667797       0.10303945279051829       0.10815837161748920       0.10999093456590803       0.11159861469321264       0.11433713889400376       0.11896834817080348       0.12048551695117782       0.12151248774275247       0.12773436552307471       0.12944328759741985       0.13495922607415034       0.13638235539210131       0.13950937865604729       0.14761651185823199       0.14992183520549895       0.15294073690796539       0.15893754733451670       0.15963046113946744       0.16262005676492519       0.16619021343871987       0.17154504645194413       0.17190539974941377       0.17865658611267099       0.18115792683350485       0.18275362625734770       0.19051479657508175       0.19088293601490314       0.19209197603033035       0.19827240749909558       0.20229276942087715       0.20480090020934050       0.21592018788170986       0.21769005096931027       0.21976914002091252       0.22411518069375269       0.22814171210821232       0.23468184270982029       0.23805005529509682       0.24499324685742385       0.24654187449875176       0.24908221836847089       0.25576783992083296       0.25706890536331128       0.25811891223477268       0.26654243960246538       0.26816582437019365       0.27138933420337619       0.27883509298724052       0.27911692135551780       0.28193391408508717       0.29636546465137981       0.30574294523406431       0.31355947481987334       0.32035181103467814       0.32653901614543290       0.33254934610182385       0.33284256340576990       0.34113208719314647       0.34248421077815960       0.34713621187551835       0.35911244061682712       0.35914148340919327       0.62204112969274661       0.63324954358944430       0.63420104320728043       0.63794182565546964       0.64508658560109455       0.64774385137119483       0.65215321355625000       0.65872569466836972       0.66004962337120388       0.66442153845315843       0.67376009305932216       0.68556089569328282       0.68647857982193683       0.69801584144440287       0.69965031074767925       0.70140184419765261       0.71177366821475818       0.71231615199203979       0.71745238523086385       0.72768027056287776       0.73151335155088937       0.73751359178382869       0.74267949570515568       0.75710176689716713       0.76143750108718655       0.76932440854230144       0.78335178580842779       0.79169401449719512       0.79882389616544991       0.80766300533633739       0.82101908647963873       0.82989229541976961       0.83155632950717839       0.83921178868000279       0.84289913799626492       0.85426569298884258       0.85781105670958979       0.86860948537688221       0.88898539732116455       0.89572390507272015       0.90493999801841074       0.91019221976265996       0.91886268314157693       0.92941484489837811       0.93416242959003259       0.94777099241336615       0.95871557686985209       0.96408648608216940       0.97193048498376178       0.98324299349713051       0.99365822744675358       0.99927671696161013        1.0109496816695140        1.0280005600763842        1.0309221289158268        1.0426392972668321        1.0520310306124883        1.0564568377444641        1.0620954565244587        1.0710667917553156        1.0892158401632011        1.0982024227617455        1.1132114955037180        1.1241823618469553        1.1323975171134033        1.1368702154165582        1.1443244036322155        1.1493998087223696        1.1503720116031790        1.1670215756808671        1.3567679336285667        1.3681509340726712        1.3697085233495014        1.3805512285279096        1.3821862701689933        1.3894739204536395        1.3951058459865437        1.4074029831464419        1.4201266800738448        1.4220199736587362        1.4328845882428516        1.4401029994940373        1.4464175592629331        1.4579685559688693        1.4706385698089119        1.4861729498689331        1.4932544397551890        1.5066965948171553        1.5155901774016609        1.5191442615247539        1.5384899780943988        1.5463214810301036        1.5604286083554826        1.5752762425915399        1.5823686396615348        1.5933291303051995        1.6011339666757693        1.6123118382657333        1.6229322704793780        1.6345186469657507        1.6497281501766956        1.6598153082631997        1.6706071952461961        1.6784412004565539        1.6911110958596625        1.7022331313127288        1.7150667804408519        1.7260959926645862        1.7425212197386994        1.7512555426566692        1.7604972679397330        1.7705459012316342        1.7884422065327084        1.8002913795470497        1.8072852989531909        1.8203380735129304        1.8313152585993469        1.8440638804216507        1.8492096840783387        1.8602007191728120        1.8705270042270432        1.8795827464563275        1.8842462841136849        1.8941929219937024        1.9299686524478195        1.9405306692898903        1.9569956299691018        2.1496083197317217        2.1608265912896427        2.1617020706500290        2.1634959259228346        2.1745512776319851        2.1846936827571706        2.1872907741818839        2.1991549652290461        2.2096706341470949        2.2197848744376940        2.2257461605094742        2.2349601000591885        2.2451402160154732        2.2558971963481844        2.2751077049922013        2.2880491426986684        2.2997805137159824        2.3102318070369274        2.3175841598185980        2.3350659796656741        2.3507103338694213        2.3585216528502073        2.3711182143481389        2.3816800684065522        2.3938034496165503        2.4078738984336359        2.4272149723997742        2.4357998631238069        2.4464130798574626        2.4636502985884361        2.4741712960051032        2.4851490741703208        2.4971201987014031        2.5104443361207629        2.5255389506323938        2.5349780348393587        2.5449288818238114        2.5567664277342810        2.5703039925342033        2.5865806615424258        2.6019461437731906        2.6115445847261949        2.6208444736482148        2.6332263082919125        2.6494615502403476        2.6561437939246115        2.6667831352909168        2.6786046995574275        2.6913424256745491        2.7145535989658041        2.7162509133973005        2.7278760025193134        2.7401094984520604        2.7498043017935552        2.7528868407754592        2.7650656790058536        2.9396771193048803        2.9511701291355510        2.9553926470862995        2.9577571079011200        2.9708476927393299        2.9742056151374867        2.9848765086939650        3.0195279544330376        3.0202627269078675        3.0321668159032060        3.0431867432821171        3.0508577066579243        3.0584751903995411        3.0700291489976368        3.0781776122188242        3.0876560815380243        3.1023180141104101        3.1167343773700829        3.1250144658730634        3.1365844342710618        3.1482580689504478        3.1621370090565231        3.1730648834245190        3.1832326602783709        3.1957219932534922        3.2086721966423575        3.2256516731463489        3.2395127214345916        3.2474092742931120        3.2532760056258918        3.2655745203388764        3.2785185845152953        3.2990856906068911        3.3069894701158735        3.3192152119699005        3.3307538045200653        3.3378676748841531        3.3469933254619657        3.3674462155573508        3.3736650472276222        3.3862143640352098        3.3987319776730596        3.4112666677647145        3.4249640676007211        3.4397177430433334        3.4470416798586418        3.4539417012796911        3.4657565757945941        3.4756686743325425        3.4814248061143394        3.4932824375678742        3.5070951003885455        3.5195379059999565        3.5207303485748191        3.5325396826709805        3.5449246553373639        3.5461564507522412        3.5579541367222847        3.7463404379367109        3.7478908386700298        3.7573023929112734        3.7644117461400080        3.7651879975940163        3.7742532775463906        3.7778964577748431        3.7822548928623179        3.7907567134395177        3.8015885580282411        3.8152254272611272        3.8273300520350109        3.8319551594155650        3.8441149095736291        3.8505360310712486        3.8589219613525896        3.8640355906419273        3.8742423704457551        3.8879814209815260        3.9002666417627050        3.9090675120973808        3.9149245526905569        3.9268215437554899        3.9369319675064776        3.9434504781860382        3.9549463576181121        3.9686993568540241        3.9773401826909418        3.9842496572168664        3.9949100893998608        3.9999339741535640        4.0103694010040316        4.0238359028725856        4.0356510931652512        4.0417151941051248        4.0507332399546607        4.0611687303234421        4.0665842612134755        4.0758033484351959        4.0874839157294600        4.0992357587995176        4.1049621065145470        4.1118036670427180        4.1189122349549532        4.1287525568518459        4.1324652847017695        4.1426954919224563        4.1474567858467228        4.1613248245342254        4.1696590771015476        4.1729433192828420        4.1774688100949904        4.1872863213143523        4.1948898095093590        4.1985896534626805        4.2018927944668185        4.2053050714173761        4.2118504710469686        4.2148589136046084        4.2280722949390004        4.2407712442115821        4.2498650855000957        4.2544630197750166        4.2620859518760845        4.2667926354237986        4.2668150142598984        4.2763562293521282        4.2803175632447683        4.2925081943601038        4.5548538385100201        4.5551441381126017        4.5657456644503167        4.5671562425062167        4.5720812456261264        4.5731597914847004        4.5768243453074859        4.5814499711647523        4.5877507423178576        4.5914893321557484        4.5939412407853624        4.6007277263272321        4.6085409650244369        4.6165035923506563        4.6179621209922379        4.6273658701527722        4.6294535122365161        4.6323631597895840        4.6352028509992245        4.6429091669845306        4.6461487539772586        4.6477752898855718        4.6572462556032033        4.6584342922576933        4.6652208440418388        4.6675977373732458        4.6693013916539199        4.6762713473845263        4.6796004050915094        4.6861773284736454        4.6902594161348086        4.6967689266847952        4.6978373653698338        4.6984642604350988        4.7095225405678356        4.7120259102937290        4.7160467835451740        4.7227595042235073        4.7236116976722187        4.7315782215946269        4.7331401169360774        4.7419932955869530        4.7427342931316403        4.7481119383024231        4.7516924628227919        4.7540309822893017        4.7553610767913206        4.7613869514399010        4.7643912413265834        4.7666803048262762        4.7746349091362479        4.7748031192109650        4.7793637720210000        4.7848522826357032        4.7899022619904388        4.7928082169369421        4.7938182184121398        4.7953345926861175        4.7999568378891615        4.8020763288765753        4.8027093718454879        4.8061453846231652        4.8112579240816551        4.8119348670878210        4.8139552303082693        4.8165871757205156        4.8197498351193193        4.8253946235309950        4.8256928883387920        4.8316724526053099        4.8383767272746381        4.8407679651542654        4.8477466522535302        4.8486347130412835        4.8541787843123938        4.8577128552442623        4.8577131071271475        4.8631521426917281        4.8695902359315353        4.8695902359683210        4.8756736378754768        4.8756736378798902        4.8763706591030065        4.8818012533148814        4.8818017299475205        4.8819198620035227        4.8819198620510722        4.8879907381752243        4.8879907381752261        4.9025685147934457        4.9025685545665620        4.9025685545665629        4.9104058289171544        4.9104058290089627        4.9104058290089636     
        (4.36960659557219903E-003,-0.0000000000000000)        (2.22909805788414203E-003,-0.0000000000000000)         (1.75946052545445817E-004,0.0000000000000000)         (2.44787524648254756E-006,0.0000000000000000)        (1.89373907406656773E-006,-0.0000000000000000)        (1.08342359309863495E-012,-0.0000000000000000)        (1.24273437884639560E-002,-0.0000000000000000)         (6.59738979858575346E-003,0.0000000000000000)               (0.0000000000000000,0.0000000000000000)        (2.24283499176922314E-003,-0.0000000000000000)         (1.11971091041180768E-003,0.0000000000000000)        (9.15868000969834979E-029,-0.0000000000000000)        (4.32809726339135615E-008,-0.0000000000000000)        (9.36801802247612845E-019,-0.0000000000000000)         (2.01482041716610034E-003,0.0000000000000000)         (4.50492824529629234E-005,0.0000000000000000)        (2.92172475264418431E-005,-0.0000000000000000)         (1.19871547139896491E-012,0.0000000000000000)        (9.64784148020411090E-031,-0.0000000000000000)        (2.58492938130761799E-004,-0.0000000000000000)        (1.06246095264242227E-014,-0.0000000000000000)        (2.77118872799743687E-031,-0.0000000000000000)         (8.75985016197654569E-005,0.0000000000000000)        (2.81694728060261572E-008,-0.0000000000000000)        (5.26741391796682066E-010,-0.0000000000000000)         (2.83407723455990758E-004,0.0000000000000000)         (3.56308176564789454E-003,0.0000000000000000)        (1.32116634962396106E-006,-0.0000000000000000)         (3.08895699295771769E-003,0.0000000000000000)         (1.73268410706058377E-005,0.0000000000000000)         (4.26490396415359477E-008,0.0000000000000000)        (1.51265758677185599E-002,-0.0000000000000000)        (1.20624226777510022E-005,-0.0000000000000000)        (3.67049695004444078E-003,-0.0000000000000000)         (2.90130734443227881E-003,0.0000000000000000)         (7.39963198101118684E-008,0.0000000000000000)        (1.44619088434359399E-003,-0.0000000000000000)        (2.62660948402341418E-005,-0.0000000000000000)        (8.90763462158471794E-004,-0.0000000000000000)         (3.76621444809604322E-005,0.0000000000000000)         (4.72515614949684177E-004,0.0000000000000000)         (1.07689131505688082E-009,0.0000000000000000)        (9.82374783962293571E-005,-0.0000000000000000)        (2.69026047317674695E-006,-0.0000000000000000)        (3.39119905844915338E-009,-0.0000000000000000)         (5.15048384016374302E-004,0.0000000000000000)        (2.21539898992938693E-004,-0.0000000000000000)         (1.09680145542802397E-003,0.0000000000000000)        (1.02444507745234390E-004,-0.0000000000000000)        (1.32311816148859666E-003,-0.0000000000000000)         (2.33189155959404347E-004,0.0000000000000000)         (2.36100701006696829E-004,0.0000000000000000)         (9.51638940821796336E-006,0.0000000000000000)         (2.93746136832634364E-004,0.0000000000000000)        (3.16952868361959064E-004,-0.0000000000000000)        (1.08751527017138748E-003,-0.0000000000000000)        (1.23350765035581803E-004,-0.0000000000000000)        (5.05604220781299702E-004,-0.0000000000000000)         (8.20649118894322294E-005,0.0000000000000000)        (1.70744458169573207E-004,-0.0000000000000000)         (1.84703837333788877E-004,0.0000000000000000)         (8.44694995780523211E-006,0.0000000000000000)        (2.96758830263970111E-005,-0.0000000000000000)         (3.28073069232322242E-005,0.0000000000000000)         (3.47032478164827849E-005,0.0000000000000000)        (6.98114645205977459E-007,-0.0000000000000000)         (5.63284723996977332E-009,0.0000000000000000)         (3.28372732208967851E-008,0.0000000000000000)        (1.31510279126023289E-005,-0.0000000000000000)        (3.43523146975465497E-006,-0.0000000000000000)         (1.80197257782111327E-004,0.0000000000000000)         (2.99491263669702699E-004,0.0000000000000000)        (6.58268134261395587E-005,-0.0000000000000000)         (9.79252430682225779E-006,0.0000000000000000)         (2.60375907030094268E-005,0.0000000000000000)         (4.66685309681954107E-005,0.0000000000000000)        (3.90029415931593730E-007,-0.0000000000000000)         (1.34344709850554493E-005,0.0000000000000000)        (6.83353507724859058E-006,-0.0000000000000000)         (1.37854797047589674E-006,0.0000000000000000)        (3.38265513913430694E-009,-0.0000000000000000)         (1.30586251050898318E-006,0.0000000000000000)         (1.08381497994049831E-008,0.0000000000000000)         (2.39082632280427885E-008,0.0000000000000000)        (1.04632892332441137E-005,-0.0000000000000000)        (5.03258548561365231E-008,-0.0000000000000000)        (7.18852187319123623E-006,-0.0000000000000000)        (2.75564245236257560E-007,-0.0000000000000000)        (2.83015647323492912E-010,-0.0000000000000000)         (9.59786298662397299E-007,0.0000000000000000)         (9.57101831471782878E-009,0.0000000000000000)        (1.26416359265882191E-030,-0.0000000000000000)        (8.84316331778630350E-008,-0.0000000000000000)         (3.05510273641757898E-032,0.0000000000000000)         (2.67132236947685608E-009,0.0000000000000000)         (3.37792844122144637E-002,0.0000000000000000)        (9.89639070063875385E-005,-0.0000000000000000)         (1.49644888415680129E-002,0.0000000000000000)        (8.12205697339855349E-003,-0.0000000000000000)        (1.07363512479279374E-006,-0.0000000000000000)         (6.93963114707590086E-003,0.0000000000000000)        (6.89598623301046769E-005,-0.0000000000000000)        (1.47652886938034614E-006,-0.0000000000000000)         (5.92907328756938712E-004,0.0000000000000000)         (1.76971103488322075E-004,0.0000000000000000)         (4.30568831606915127E-005,0.0000000000000000)         (3.10602262798803964E-005,0.0000000000000000)        (1.73684314330485806E-003,-0.0000000000000000)        (1.58490172272815454E-005,-0.0000000000000000)        (4.08292588852007983E-003,-0.0000000000000000)        (8.69417849279655540E-005,-0.0000000000000000)         (2.47494278632917966E-004,0.0000000000000000)        (8.75881910442405831E-004,-0.0000000000000000)        (1.78447573844312028E-004,-0.0000000000000000)        (1.35386549170604344E-004,-0.0000000000000000)        (2.48082820731571414E-006,-0.0000000000000000)         (1.15650316337056158E-005,0.0000000000000000)        (6.83855457790009101E-006,-0.0000000000000000)        (8.16092978155739571E-005,-0.0000000000000000)         (7.75184714945169269E-007,0.0000000000000000)         (3.00399324059919449E-006,0.0000000000000000)        (7.04949950528810409E-006,-0.0000000000000000)        (1.08513646235499714E-006,-0.0000000000000000)        (5.72231304085802586E-006,-0.0000000000000000)         (2.57198046562629730E-006,0.0000000000000000)         (1.78458796979504084E-004,0.0000000000000000)        (2.20039287501965601E-002,-0.0000000000000000)         (2.91745141087741298E-003,0.0000000000000000)         (1.99134120513437627E-003,0.0000000000000000)        (1.63443738275462539E-003,-0.0000000000000000)        (9.17414562321119649E-004,-0.0000000000000000)         (1.23678727515838050E-004,0.0000000000000000)        (1.14588118319367712E-004,-0.0000000000000000)         (1.31225286054939116E-003,0.0000000000000000)        (1.07751294974184895E-004,-0.0000000000000000)        (1.09959107064470452E-003,-0.0000000000000000)         (2.86627626807191456E-004,0.0000000000000000)        (4.70404862079853146E-004,-0.0000000000000000)        (6.76145935249620003E-005,-0.0000000000000000)         (8.26201651156485218E-005,0.0000000000000000)        (1.68745374814167779E-004,-0.0000000000000000)         (8.35219406442331885E-005,0.0000000000000000)        (2.26232564469681349E-004,-0.0000000000000000)         (1.66763445409774089E-004,0.0000000000000000)         (8.92028735329984082E-005,0.0000000000000000)         (8.78102033421040949E-006,0.0000000000000000)        (1.17193255122496155E-005,-0.0000000000000000)        (7.44552330640957258E-007,-0.0000000000000000)         (1.75516610257204265E-005,0.0000000000000000)        (1.62828931701066457E-005,-0.0000000000000000)         (2.59258934972772879E-005,0.0000000000000000)        (3.65821843540741950E-006,-0.0000000000000000)         (4.00307968959472826E-006,0.0000000000000000)        (1.49375413842434071E-006,-0.0000000000000000)        (1.62785470891711390E-007,-0.0000000000000000)        (1.11313166676282108E-009,-0.0000000000000000)        (1.21921247587106633E-011,-0.0000000000000000)         (5.57019440790660836E-006,0.0000000000000000)        (6.57106728345125773E-007,-0.0000000000000000)        (1.51303372218119574E-008,-0.0000000000000000)         (1.06957664690842172E-007,0.0000000000000000)         (1.31713153607273643E-011,0.0000000000000000)         (1.75219143342425920E-009,0.0000000000000000)         (6.10743071824298998E-009,0.0000000000000000)         (2.14381759988408765E-010,0.0000000000000000)         (5.80788300936798101E-004,0.0000000000000000)         (5.40637979414202363E-004,0.0000000000000000)        (4.35091795226380811E-004,-0.0000000000000000)         (5.56953853996878793E-005,0.0000000000000000)        (3.45400831024939557E-004,-0.0000000000000000)        (1.68516646182828951E-007,-0.0000000000000000)         (8.95464982137538618E-005,0.0000000000000000)        (5.34924647778532861E-006,-0.0000000000000000)        (3.89033132903216644E-003,-0.0000000000000000)         (7.03849442795859566E-005,0.0000000000000000)        (2.36745622622893748E-003,-0.0000000000000000)         (1.95848318941171690E-004,0.0000000000000000)         (6.91661243580357589E-004,0.0000000000000000)         (9.26614144246736140E-005,0.0000000000000000)         (8.60593689565253698E-006,0.0000000000000000)         (3.78296153747740491E-002,0.0000000000000000)         (1.46840858492868539E-003,0.0000000000000000)         (5.75827861463693649E-002,0.0000000000000000)         (4.37991153447840533E-003,0.0000000000000000)         (5.90604059497488402E-003,0.0000000000000000)        (9.98391203295717448E-003,-0.0000000000000000)        (2.65353067165585450E-003,-0.0000000000000000)        (2.06893454065761907E-003,-0.0000000000000000)         (6.27840888474060083E-002,0.0000000000000000)         (2.29737288587608876E-002,0.0000000000000000)         (1.31075769801419426E-002,0.0000000000000000)         (2.79214808033650536E-002,0.0000000000000000)         (1.77529356975775279E-002,0.0000000000000000)         (8.84782688598210500E-003,0.0000000000000000)         (4.09437876213707141E-003,0.0000000000000000)         (2.44558084260407173E-003,0.0000000000000000)        (2.94194183297778701E-003,-0.0000000000000000)         (8.44907406884649707E-003,0.0000000000000000)         (8.21144763113992870E-003,0.0000000000000000)        (1.81307575939248524E-003,-0.0000000000000000)        (1.02700879315371311E-003,-0.0000000000000000)        (4.22906596690563515E-004,-0.0000000000000000)         (5.60865656124179203E-004,0.0000000000000000)         (1.61700021946830762E-003,0.0000000000000000)         (4.73809736381369730E-004,0.0000000000000000)        (1.23834549043038837E-004,-0.0000000000000000)        (2.74390004721994782E-005,-0.0000000000000000)        (1.43825707100617631E-005,-0.0000000000000000)        (2.99687489964032615E-005,-0.0000000000000000)        (9.86847504548279146E-006,-0.0000000000000000)        (1.14586472802741857E-005,-0.0000000000000000)        (3.73469139298496052E-006,-0.0000000000000000)         (1.94019163592553206E-006,0.0000000000000000)         (1.01142134447401286E-006,0.0000000000000000)         (6.20096343934899562E-007,0.0000000000000000)        (1.76060582505717947E-007,-0.0000000000000000)        (4.24454048411014339E-009,-0.0000000000000000)         (3.87663523051008053E-009,0.0000000000000000)         (2.42773448069546456E-010,0.0000000000000000)         (1.85632931236491150E-012,0.0000000000000000)         (2.57208856860655200E-013,0.0000000000000000)        (2.80867193538706461E-014,-0.0000000000000000)         (6.79951630318679340E-004,0.0000000000000000)         (6.22379722748646523E-006,0.0000000000000000)        (3.94718826562602228E-004,-0.0000000000000000)        (2.07203421532324252E-004,-0.0000000000000000)         (2.70310757781822865E-004,0.0000000000000000)        (4.14625887992149395E-006,-0.0000000000000000)        (3.67145214998644114E-005,-0.0000000000000000)         (3.78114459197791623E-006,0.0000000000000000)        (1.59969880430042930E-004,-0.0000000000000000)         (2.44214869299651770E-004,0.0000000000000000)        (2.39820811114867103E-004,-0.0000000000000000)         (1.52169232945927778E-004,0.0000000000000000)         (4.58026049507795604E-005,0.0000000000000000)        (8.63094867565759603E-006,-0.0000000000000000)         (1.67655545554185764E-004,0.0000000000000000)        (2.34873949920283789E-004,-0.0000000000000000)        (1.40453430269681014E-004,-0.0000000000000000)        (2.00628117377749668E-004,-0.0000000000000000)        (8.32504551413308511E-005,-0.0000000000000000)        (3.28616911962315939E-005,-0.0000000000000000)        (7.58970850192221128E-005,-0.0000000000000000)         (2.60302269021088354E-004,0.0000000000000000)         (2.93971172742167651E-004,0.0000000000000000)        (1.61095763860443771E-004,-0.0000000000000000)        (4.01461252793826708E-005,-0.0000000000000000)        (1.58229075686974360E-005,-0.0000000000000000)         (1.34755686871177333E-004,0.0000000000000000)         (2.28849194702707750E-004,0.0000000000000000)         (1.37360252689037717E-004,0.0000000000000000)         (1.14567541424752230E-004,0.0000000000000000)        (1.50157695199890730E-004,-0.0000000000000000)        (1.54018100476960561E-004,-0.0000000000000000)        (1.11274203369903063E-004,-0.0000000000000000)         (4.41005270369153928E-005,0.0000000000000000)        (1.32244448963665483E-004,-0.0000000000000000)         (1.13076407457320880E-004,0.0000000000000000)        (6.60521579525575789E-005,-0.0000000000000000)         (2.16219767816379769E-005,0.0000000000000000)         (3.61272038558193904E-006,0.0000000000000000)        (2.25532800501038640E-005,-0.0000000000000000)        (1.33218851749696402E-005,-0.0000000000000000)        (4.94182367915803844E-006,-0.0000000000000000)         (1.82116338729784801E-006,0.0000000000000000)        (3.39711810625251416E-007,-0.0000000000000000)        (8.86696494818934965E-007,-0.0000000000000000)         (2.28364340399703532E-006,0.0000000000000000)         (9.07260447130889427E-007,0.0000000000000000)        (1.98393954529130724E-007,-0.0000000000000000)         (1.30032881370496379E-008,0.0000000000000000)        (2.05311478010249639E-008,-0.0000000000000000)        (1.46170674806717879E-008,-0.0000000000000000)        (1.89993809282457869E-008,-0.0000000000000000)         (2.92451100717958710E-009,0.0000000000000000)         (2.63633284486985351E-011,0.0000000000000000)         (2.34219063895689186E-010,0.0000000000000000)         (6.22168905613772273E-012,0.0000000000000000)        (1.01428274651897193E-010,-0.0000000000000000)        (6.52810207637400218E-011,-0.0000000000000000)        (5.54472727693398614E-011,-0.0000000000000000)         (8.19024074467067453E-009,0.0000000000000000)        (2.31471268535275823E-010,-0.0000000000000000)        (1.85604063345711345E-008,-0.0000000000000000)        (1.19167941730663154E-009,-0.0000000000000000)        (1.86945500010468828E-006,-0.0000000000000000)        (3.55968543809515083E-005,-0.0000000000000000)         (8.41304213564113057E-005,0.0000000000000000)         (2.16184020242744210E-005,0.0000000000000000)         (7.17148565857419022E-006,0.0000000000000000)         (9.12765772863653155E-005,0.0000000000000000)         (3.69007235648946549E-005,0.0000000000000000)         (2.35523954063682760E-005,0.0000000000000000)        (1.06910571504064164E-005,-0.0000000000000000)        (1.07964562211153034E-005,-0.0000000000000000)         (5.52248973299006937E-006,0.0000000000000000)        (4.70818573106575527E-006,-0.0000000000000000)         (1.48382332313578253E-005,0.0000000000000000)         (8.08467585234787467E-006,0.0000000000000000)         (4.27238947088350542E-006,0.0000000000000000)         (8.27423067891940939E-006,0.0000000000000000)         (4.89219425140986224E-006,0.0000000000000000)         (2.44839114914814491E-006,0.0000000000000000)        (1.13432031810092641E-006,-0.0000000000000000)        (2.23733184042712149E-006,-0.0000000000000000)         (4.82867873060884584E-005,0.0000000000000000)         (7.53190182186976856E-006,0.0000000000000000)         (2.87731603539617785E-005,0.0000000000000000)        (1.03968549909182743E-005,-0.0000000000000000)         (1.32910286925073852E-006,0.0000000000000000)         (3.23290506818055700E-007,0.0000000000000000)        (4.92563709090547354E-006,-0.0000000000000000)        (5.11237844936312432E-006,-0.0000000000000000)         (1.29400895566266140E-006,0.0000000000000000) 