            #Ek_l1_s1              Vk_l1_s1
  -7.730725967643E-01    2.558279316102E-01
  -6.858908152938E-02    1.047425089085E-01
  -1.281288798458E-02    6.289780529794E-02
   1.970837965099E-06    3.206058308574E-02
   1.282684756112E-02    6.292232363158E-02
   6.864891678967E-02    1.047558525261E-01
   7.738137862264E-01    2.558957440132E-01
