 T
           1
           2
         500
   4.1456544686375718E-003   4.1456544686380159E-003   4.1456544686380159E-003   4.1456544686395702E-003   1.2445165891060261E-002   1.2445165891060261E-002   1.2445165891060483E-002   3.3773941682257558E-002   3.3773941682258668E-002   3.3773941682259334E-002   4.0436360501301172E-002   4.0436360501301394E-002   4.0992387538037800E-002   4.4006512332522618E-002   4.4006512332523062E-002   4.4693596462910934E-002   4.4693596462911156E-002   5.1307275117610462E-002   5.1307275117610684E-002   6.6296821441428566E-002   6.9599939718597792E-002   6.9599939718598014E-002   7.4947963888471358E-002   7.7111880853059755E-002   7.7111885109331091E-002   7.8817242686242794E-002   7.8817447427661058E-002   8.1391502512760283E-002   8.6487945083216111E-002   8.6495018096446108E-002   9.0076519562379831E-002   9.0147065763085399E-002  0.10345657530412500       0.10345658266614088       0.10979175440275402       0.11078763111324785       0.11393934119567239       0.11407687877744710       0.12083930992301006       0.13856000701269622       0.13921794698068224       0.14376847000864856       0.14610721835502605       0.14678520569364251       0.15293045375473846       0.15379919257506836       0.15928380212945159       0.16738029591140235       0.17493452848433577       0.17810411081511113       0.18358718925829365       0.18383948375259940       0.18889842889422792       0.19113667120267475       0.19184520013569117       0.20071210305319620       0.20692809942738255       0.21065605153901412       0.21194607198944326       0.21668096454553654       0.22060979319961582       0.22127869852253501       0.22359257766507912       0.22896529832119961       0.23063414452112330       0.23892419482045990       0.24235605625175127       0.24669170728132839       0.24677778583687293       0.25607437466327765       0.25664850150119811       0.26309444920412650       0.27090808916180520       0.27601327876105941       0.28276244115574789       0.28625176819023901       0.28779527599985522       0.29594156111831715       0.30021150151206677       0.30640503026779475       0.30876649512155496       0.31680539534032359       0.32194660953501253       0.33285014986531980       0.33562201681621495       0.34613871818603759       0.34738572787392874       0.35446065781216030       0.35502994068727189       0.36144533744951945       0.37026576144868528       0.37496787497832296       0.38126497798548731       0.39644363563700469       0.40885211411209976       0.41687064001736562       0.42502413495084479       0.43136605695648367       0.43828007390798440       0.44682155636101628       0.45418827719623023       0.46446324140725759       0.46539302952361039       0.47757173921557472       0.47835820107916982       0.48317979035504743       0.49317294379022458       0.49878027097720157       0.50634547772603300       0.51205680900015538       0.52143069715507773       0.53848974591524423       0.53977106209063397       0.55364584765042468       0.56276316635625312       0.56703549234087824       0.57611377241731931       0.58233738075154440       0.58830349800562787       0.59645611224322526       0.60631023451511790       0.61398598289786466       0.62482966960490716       0.62881560983165752       0.63379456809006474       0.64067478138043388       0.65282327043913058       0.66094220919636237       0.66532659513856207       0.67373827112750972       0.68016602036460250       0.68867400186525596       0.70167288043471698       0.70627465044157201       0.71613143079310593       0.72509156382390061       0.73669658061935239       0.74592291156353241       0.75255350943121213       0.76432994024712286       0.76962896019478189       0.77879215846330530       0.78742637603322985       0.80278541584182284       0.80720351293506476       0.81652669452162763       0.82530312113286364       0.83371105246347144       0.84254244794447009       0.85211226538631490       0.85887546732988351       0.87263964647471415       0.88044759459158595       0.89036764005134250       0.90062551566144089       0.90452648089965271       0.91659498259734029       0.93083316995791776       0.94238631571545550       0.94871126736061884       0.95510899988962006       0.97759738398188301        1.0000147067243930        1.0029717365250765        1.0117389770601426        1.0238719077706167        1.0282835530596623        1.0393546773133198        1.0605649434582056        1.0732278327636335        1.0797558776079124        1.0915806104496191        1.0997334243232282        1.1069609344395703        1.1211063669161863        1.1265748074088475        1.1354807193438439        1.1431456214360463        1.1568023382368604        1.1679231914947275        1.1767066372870132        1.1881507362946608        1.1974557761612874        1.2188879462841524        1.2233917293078158        1.2338031719604476        1.2435733072495712        1.2557123019306056        1.2652598672846809        1.2760690030028805        1.2889837784351401        1.3008321423088762        1.3094988001996732        1.3229688713798105        1.3332182430443038        1.3424821800462057        1.3552000255594396        1.3645493598702203        1.3773963226416095        1.3826090965171600        1.3947990047423111        1.4044090490360683        1.4107325225907412        1.4240362589324238        1.4377713458976105        1.4509108334913745        1.4685319636966432        1.4784777885199116        1.4839563392941593        1.4922206281385184        1.5058635036327730        1.5193604177971027        1.5341315726438192        1.5448613863640459        1.5578867723785701        1.5688010502403034        1.5797327670368846        1.5845778062743194        1.5973540774593664        1.6107340643088324        1.6258221567785349        1.6345656342860428        1.6475473412109958        1.6553868133933347        1.6666128055172555        1.6803679291411531        1.6947810165240453        1.7048516064248678        1.7154065479599263        1.7303007220108917        1.7474891538824067        1.7540530142030393        1.7620410292735535        1.7752653686472564        1.7875390272701701        1.7992400039250984        1.8114893922626323        1.8264589495767141        1.8392576705193173        1.8512402270250730        1.8662258782600423        1.8788235604412953        1.8849065933634108        1.8990571016422109        1.9064029653461996        1.9139017256352957        1.9285634134807361        1.9536505189743716        1.9658883752016565        1.9785303396744260        1.9834988822378656        1.9961138827916733        2.0081836463762661        2.0228665339783456        2.0289705429536182        2.0382627757682421        2.0514091647429362        2.0636172603108278        2.0771916399994934        2.0908419597875598        2.1029154503675311        2.1086989068428990        2.1204148379792036        2.1336602448389588        2.1462597837461601        2.1618194318872179        2.1729004458611403        2.1842796916940754        2.1988335600076931        2.2104257107066188        2.2181311856592512        2.2294965500123389        2.2436600000848905        2.2555560282341931        2.2631062675096194        2.2751278855671675        2.2898165349637685        2.3075943571259456        2.3123626254154610        2.3231916415339846        2.3367191041987745        2.3477043223221337        2.3601471849938056        2.3739574071416891        2.3848824786671710        2.4010780648343255        2.4057740954261222        2.4162182546163207        2.4302345707593132        2.4528670156296259        2.4556918588117975        2.4672416121748437        2.4752481317085957        2.4827696352859965        2.4961932857348410        2.5087342139717652        2.5285424699476149        2.5436757595819843        2.5474093525481170        2.5599975599027172        2.5713380928881548        2.5812838801487690        2.5898103119299849        2.6014204734050503        2.6107618500435628        2.6248352639251111        2.6354334749448682        2.6445399337457811        2.6536514234705590        2.6636040966282568        2.6776554915335815        2.6914913259089825        2.6997943911040778        2.7092416355481985        2.7213058753669488        2.7312639949380220        2.7411330194867194        2.7513320193898512        2.7625987445002780        2.7757059906048775        2.7883106056389435        2.7962348520942584        2.8041295100570531        2.8150001353418981        2.8283528311720483        2.8427102720879880        2.8530206436060990        2.8623318944472613        2.8710652571458981        2.8818123243840983        2.8892709027232595        2.9004672607344446        2.9251143570310942        2.9314890237237607        2.9417147971471715        2.9447948905158015        2.9586265428315190        2.9644940270029796        2.9730321936072333        2.9845273264706007        3.0077839869150269        3.0235405320428796        3.0329439224222678        3.0420411579224451        3.0546123868338340        3.0601650904576783        3.0675526516740845        3.0717911348099216        3.0846043741451155        3.0968595406959256        3.1060669246179309        3.1184284808435194        3.1220341302322883        3.1328278491131698        3.1428557433536568        3.1525075617447325        3.1602319861935815        3.1691977841467569        3.1813546944244528        3.1890700820653937        3.1959551902285650        3.2083524334098392        3.2169029514164196        3.2225064309743603        3.2338410492986904        3.2447165414209014        3.2514894214739343        3.2628418774469266        3.2682433983006867        3.2817066323753155        3.2860834269023282        3.2957825819444739        3.3040811085516726        3.3117928105831318        3.3181961825175286        3.3334588340699538        3.3368517373874624        3.3467646040888237        3.3521670977646778        3.3612633231696627        3.3738677725282500        3.3806557343568313        3.3900003052999521        3.3974596980353908        3.4020636864005231        3.4101486269481818        3.4189118600277491        3.4226956352986546        3.4286768431108108        3.4330856372897891        3.4481472309224150        3.4651578586798610        3.4743675111406462        3.4802408012764969        3.4877907324000832        3.4934571238618037        3.5038130236172069        3.5083011582056880        3.5195939979533035        3.5322304789951025        3.5343061526284472        3.5395827006940825        3.5481508793876166        3.5560245597397975        3.5614076337077458        3.5695246576053519        3.5775688606397553        3.5900395188592018        3.5908125817980290        3.6051657439190201        3.6115107536187310        3.6161649406555805        3.6250271146341007        3.6299276300471055        3.6314302918408288        3.6391494103637720        3.6403091773810869        3.6510012792898237        3.6536035720703852        3.6645147372039419        3.6695005883026157        3.6776646865919833        3.6830499177891696        3.6861720044806647        3.6904953558357034        3.6967142790083036        3.7017990241510503        3.7036924269272609        3.7104176709166223        3.7155748026952216        3.7233719336792079        3.7297986260867955        3.7303618747453040        3.7397664099625265        3.7442382254076376        3.7475280324730900        3.7557944309982068        3.7574576369257846        3.7651832004380923        3.7694762995456585        3.7745237383747421        3.7752207089629248        3.7794925838328304        3.7828302936778613        3.7857319161303749        3.7952639065148546        3.7975806498586331        3.8027553206505269        3.8038403855896554        3.8083262358411130        3.8115433560730270        3.8127929249170815        3.8165893260000967        3.8190555893261910        3.8256625342620962        3.8271726620427584        3.8335061243301531        3.8396087690768361        3.8396770322525877        3.8403336555784504        3.8472283815777062        3.8478367198371242        3.8587284085219675        3.8655953055798937        3.8723351845070195        3.8724199848722898        3.8756440181896714        3.8766109474426522        3.8829758075186707        3.8963298098814549        3.8998811047920912        3.8999314051408240        3.9050156118392811        3.9073315300003073        3.9075938423384873        3.9085540589500187        3.9093117242193376        3.9114538636241782        3.9168151435952274        3.9168151444988517        3.9201028287489494        3.9201028888176772        3.9351212387798946        3.9351212387798955        3.9367150657010743        3.9417139575013995        3.9417139575014004        3.9424095931275707        3.9454240313001652        3.9454240313001669        3.9459658096772561        3.9459658096772570        3.9526533955305103        3.9526533955305112        3.9739430045862179        3.9739430045862214        3.9739430045862218        3.9822424241336711        3.9822424241336734        3.9822424241336734     
         (4.01574292192623424E-003,0.0000000000000000)         (1.59641555512964983E-003,0.0000000000000000)        (1.92104390753692353E-003,-0.0000000000000000)         (7.76215750424275333E-010,0.0000000000000000)        (7.35641543764859343E-007,-0.0000000000000000)         (4.34947524342881986E-007,0.0000000000000000)         (6.95401534217763947E-010,0.0000000000000000)        (7.46440284783825118E-003,-0.0000000000000000)         (9.78242092495652110E-003,0.0000000000000000)         (1.61349271696228230E-002,0.0000000000000000)         (9.04439119181529383E-004,0.0000000000000000)        (8.86973216422060496E-004,-0.0000000000000000)        (5.49674566375877502E-029,-0.0000000000000000)         (3.05751353407330206E-010,0.0000000000000000)        (1.04790086611798950E-009,-0.0000000000000000)        (3.96268145008648177E-004,-0.0000000000000000)        (6.80614503400512856E-004,-0.0000000000000000)         (4.15920245262217019E-007,0.0000000000000000)        (1.30789404118556934E-006,-0.0000000000000000)         (6.15289468839926626E-031,0.0000000000000000)        (1.20315103535918394E-004,-0.0000000000000000)        (2.80671219353398082E-006,-0.0000000000000000)        (3.89808068433647942E-031,-0.0000000000000000)         (8.19413277095489305E-005,0.0000000000000000)        (4.61491879457768416E-021,-0.0000000000000000)         (1.19244217117556493E-006,0.0000000000000000)        (3.55847219523128190E-025,-0.0000000000000000)         (3.88279412713392380E-010,0.0000000000000000)         (8.05780955854744498E-031,0.0000000000000000)        (1.70843327072065376E-008,-0.0000000000000000)         (2.18066460718349165E-011,0.0000000000000000)         (1.86839481612109346E-034,0.0000000000000000)        (8.20091222434914027E-004,-0.0000000000000000)         (2.00127672549381066E-020,0.0000000000000000)         (7.34504863594883511E-005,0.0000000000000000)        (2.07989700268909257E-030,-0.0000000000000000)        (1.47281819671157223E-008,-0.0000000000000000)         (1.66719206983822430E-005,0.0000000000000000)         (1.77881204199217969E-007,0.0000000000000000)         (4.66643971588908291E-003,0.0000000000000000)        (3.42697796943990801E-002,-0.0000000000000000)         (5.89578768889779333E-026,0.0000000000000000)        (2.35856848699652136E-002,-0.0000000000000000)         (7.95152194951613154E-004,0.0000000000000000)        (7.73369657691370255E-003,-0.0000000000000000)        (2.03160484529818255E-006,-0.0000000000000000)        (5.71779294897954921E-004,-0.0000000000000000)         (4.13305800713826416E-003,0.0000000000000000)         (1.43553355557008653E-004,0.0000000000000000)        (3.06374420353880438E-004,-0.0000000000000000)         (1.49407331786129572E-003,0.0000000000000000)        (1.24262936451617015E-007,-0.0000000000000000)         (7.39684697006140739E-004,0.0000000000000000)         (4.14700795582924739E-006,0.0000000000000000)         (7.04538116051811976E-008,0.0000000000000000)        (6.16366095559640632E-003,-0.0000000000000000)         (5.02709517216640557E-004,0.0000000000000000)         (1.04018409470249952E-003,0.0000000000000000)        (3.39615691428035303E-004,-0.0000000000000000)        (2.20202733188849954E-007,-0.0000000000000000)         (1.21477757355299899E-005,0.0000000000000000)         (2.67982441272936970E-003,0.0000000000000000)         (1.33481159610917190E-007,0.0000000000000000)        (8.39417866192005271E-006,-0.0000000000000000)        (9.77967874300549435E-004,-0.0000000000000000)        (9.72046065770549993E-006,-0.0000000000000000)        (2.22091014474010964E-003,-0.0000000000000000)         (2.69150484101418359E-003,0.0000000000000000)        (9.55335876688411727E-004,-0.0000000000000000)        (2.07391525872494009E-004,-0.0000000000000000)        (6.48898155322316715E-004,-0.0000000000000000)        (5.06443003722106519E-006,-0.0000000000000000)         (1.44990337587373833E-004,0.0000000000000000)        (2.67118521421252529E-004,-0.0000000000000000)        (1.02252203551950546E-004,-0.0000000000000000)         (2.48422607419989728E-005,0.0000000000000000)         (2.11357752320594999E-006,0.0000000000000000)        (1.21490175148197067E-005,-0.0000000000000000)         (5.77523080852650207E-007,0.0000000000000000)        (1.38855793819034114E-007,-0.0000000000000000)        (5.36137443463894262E-006,-0.0000000000000000)         (4.86623949079039136E-008,0.0000000000000000)         (8.38566908521449459E-006,0.0000000000000000)         (2.39294419043545921E-006,0.0000000000000000)         (1.88937571475541349E-003,0.0000000000000000)         (6.79201763592645167E-007,0.0000000000000000)        (2.76795660219953234E-004,-0.0000000000000000)        (1.60906175162251541E-007,-0.0000000000000000)        (6.74190333851659589E-006,-0.0000000000000000)        (7.59151132680426714E-005,-0.0000000000000000)         (1.06625635457411077E-005,0.0000000000000000)        (3.54950076712708754E-006,-0.0000000000000000)        (7.23364314289370693E-008,-0.0000000000000000)        (1.29101504829968139E-008,-0.0000000000000000)         (6.19546644560543157E-005,0.0000000000000000)        (2.32926321315277022E-007,-0.0000000000000000)        (5.50795506491279718E-005,-0.0000000000000000)         (2.77053517499892702E-006,0.0000000000000000)        (9.39229566442424259E-006,-0.0000000000000000)         (2.09848195501325218E-007,0.0000000000000000)         (1.29707956226392172E-006,0.0000000000000000)         (1.55225498144097664E-007,0.0000000000000000)         (8.81439922326657764E-003,0.0000000000000000)         (4.55731463795227055E-005,0.0000000000000000)         (4.43680675280955748E-003,0.0000000000000000)         (2.45423528026982333E-003,0.0000000000000000)         (1.91988644924467574E-003,0.0000000000000000)         (2.10815537024234130E-005,0.0000000000000000)        (1.45504365540625243E-004,-0.0000000000000000)        (4.19641441568397857E-005,-0.0000000000000000)         (6.24184810822645227E-006,0.0000000000000000)        (5.15110511929884083E-005,-0.0000000000000000)         (7.99565168976470911E-007,0.0000000000000000)        (6.31451785742525863E-005,-0.0000000000000000)         (1.31621450032403439E-004,0.0000000000000000)        (2.65890554193814446E-004,-0.0000000000000000)         (5.30327481514306759E-004,0.0000000000000000)         (8.66029601645312250E-005,0.0000000000000000)        (6.07742359902810228E-004,-0.0000000000000000)        (6.92128553064760193E-004,-0.0000000000000000)         (4.85118998785592900E-004,0.0000000000000000)        (5.07776379083582381E-003,-0.0000000000000000)         (2.52866644517292386E-003,0.0000000000000000)         (5.81189883549771032E-003,0.0000000000000000)         (3.03824762439951776E-003,0.0000000000000000)         (4.61711520776889560E-003,0.0000000000000000)        (6.92618595880107181E-004,-0.0000000000000000)         (1.86996201421050189E-002,0.0000000000000000)         (8.50611052454093054E-003,0.0000000000000000)         (5.47989228973434512E-003,0.0000000000000000)         (9.31699569458052787E-004,0.0000000000000000)        (2.41128265656847434E-003,-0.0000000000000000)         (5.30136550127457648E-004,0.0000000000000000)        (4.21257187750167866E-004,-0.0000000000000000)        (4.18934228257559051E-004,-0.0000000000000000)         (2.34460530469360822E-004,0.0000000000000000)        (2.38991199716149854E-003,-0.0000000000000000)         (9.96186378164420168E-005,0.0000000000000000)        (2.43024122319615652E-003,-0.0000000000000000)        (8.86507874038226372E-004,-0.0000000000000000)         (4.95348282149039756E-004,0.0000000000000000)        (4.04482134639856184E-004,-0.0000000000000000)        (1.58150243358554657E-004,-0.0000000000000000)         (1.70913139106821814E-004,0.0000000000000000)        (9.40320382545791183E-004,-0.0000000000000000)         (2.25404294128910395E-004,0.0000000000000000)        (3.61512188739292672E-004,-0.0000000000000000)         (1.68563833013066829E-004,0.0000000000000000)         (1.69941096271747740E-004,0.0000000000000000)        (9.00927281170719698E-005,-0.0000000000000000)         (1.90995227661333074E-005,0.0000000000000000)        (6.34179879556624488E-006,-0.0000000000000000)         (3.30515046515266278E-005,0.0000000000000000)         (6.80282545061612425E-005,0.0000000000000000)        (2.15341935860030229E-005,-0.0000000000000000)         (5.11217801580377075E-005,0.0000000000000000)        (1.07873285251737672E-005,-0.0000000000000000)         (2.23518232004136531E-006,0.0000000000000000)        (3.31256268202985939E-006,-0.0000000000000000)        (2.47875206741147364E-007,-0.0000000000000000)         (1.85252295512253771E-007,0.0000000000000000)        (6.14905346063230708E-010,-0.0000000000000000)        (4.04739775814249901E-006,-0.0000000000000000)        (1.94065970582349584E-005,-0.0000000000000000)        (2.52546479729084932E-005,-0.0000000000000000)         (8.22378400369716363E-006,0.0000000000000000)         (1.98712413313042294E-006,0.0000000000000000)        (1.60764357323820944E-006,-0.0000000000000000)        (2.45359514045832217E-007,-0.0000000000000000)        (4.26114667472253175E-005,-0.0000000000000000)        (3.53936528439547174E-004,-0.0000000000000000)         (9.17744868537936952E-004,0.0000000000000000)         (3.14970919515641630E-003,0.0000000000000000)        (7.30997149853556262E-004,-0.0000000000000000)        (1.28817268726246111E-003,-0.0000000000000000)        (9.39846338947157404E-003,-0.0000000000000000)        (2.21153279371827556E-003,-0.0000000000000000)        (2.88723537771330403E-004,-0.0000000000000000)        (7.68648874542965095E-004,-0.0000000000000000)        (7.12628774925505365E-004,-0.0000000000000000)         (1.86162106857898260E-004,0.0000000000000000)         (2.16307687743263300E-004,0.0000000000000000)         (6.27109114894206849E-005,0.0000000000000000)         (1.64834575084463176E-003,0.0000000000000000)        (4.51489309296910796E-003,-0.0000000000000000)        (3.50493323407142024E-003,-0.0000000000000000)        (2.55281906829850922E-003,-0.0000000000000000)        (6.58382446182395934E-004,-0.0000000000000000)        (1.74454394236054884E-003,-0.0000000000000000)         (2.31837382478476033E-003,0.0000000000000000)         (9.67635166413787916E-004,0.0000000000000000)         (2.78092494087849593E-003,0.0000000000000000)        (1.37546364577527044E-003,-0.0000000000000000)         (4.42893232316549958E-003,0.0000000000000000)         (2.89025121088756299E-003,0.0000000000000000)        (1.76641685952316774E-003,-0.0000000000000000)         (2.42710462556193669E-003,0.0000000000000000)         (1.20265156595002771E-002,0.0000000000000000)         (2.00765144537384532E-002,0.0000000000000000)         (3.10585392706917568E-002,0.0000000000000000)         (4.27421183101667282E-002,0.0000000000000000)         (8.58414426298815918E-003,0.0000000000000000)         (9.39061179783732755E-003,0.0000000000000000)         (1.68848394732725739E-003,0.0000000000000000)        (2.24267380361655800E-004,-0.0000000000000000)         (5.80903497028219425E-003,0.0000000000000000)         (1.35542764825553764E-002,0.0000000000000000)         (1.04676225866682567E-002,0.0000000000000000)         (3.56622769724459446E-003,0.0000000000000000)         (9.20348883859080542E-003,0.0000000000000000)         (2.65861937600300399E-003,0.0000000000000000)        (5.79790335719060899E-004,-0.0000000000000000)        (6.31510598539084699E-005,-0.0000000000000000)         (6.72819907562073258E-003,0.0000000000000000)         (3.83196107295668718E-003,0.0000000000000000)        (1.79350067650316421E-003,-0.0000000000000000)        (1.15504489205679045E-003,-0.0000000000000000)         (3.26469035309764118E-003,0.0000000000000000)         (3.58000156872643072E-003,0.0000000000000000)         (1.57810093744381423E-003,0.0000000000000000)        (4.88628072246498346E-004,-0.0000000000000000)         (3.18832833079104900E-004,0.0000000000000000)        (6.31750939912199328E-004,-0.0000000000000000)         (1.78371092856786473E-003,0.0000000000000000)         (2.05633864035667741E-003,0.0000000000000000)        (7.21335320402213473E-004,-0.0000000000000000)        (1.40819921937081373E-004,-0.0000000000000000)        (1.37121573484333349E-004,-0.0000000000000000)         (4.08451403686788380E-005,0.0000000000000000)        (1.83049566616411263E-005,-0.0000000000000000)        (3.55739007512269551E-004,-0.0000000000000000)         (8.95494661258770927E-005,0.0000000000000000)         (1.66177257632496952E-004,0.0000000000000000)         (1.25369964763135332E-004,0.0000000000000000)         (7.57616123783922665E-005,0.0000000000000000)         (2.50525736251544768E-005,0.0000000000000000)        (6.69755029617435512E-006,-0.0000000000000000)        (1.60916897400437891E-005,-0.0000000000000000)        (7.30480021895036639E-006,-0.0000000000000000)        (3.32041230962082441E-006,-0.0000000000000000)        (2.32134494602426476E-004,-0.0000000000000000)        (3.37742337253684445E-005,-0.0000000000000000)        (5.37412233839158890E-004,-0.0000000000000000)         (3.11543534674893019E-004,0.0000000000000000)         (1.05752897333708315E-004,0.0000000000000000)         (6.65389070587341048E-005,0.0000000000000000)         (1.50935262142997667E-006,0.0000000000000000)         (2.09606636731467634E-006,0.0000000000000000)         (2.91424618016093088E-005,0.0000000000000000)         (3.63688510626100680E-004,0.0000000000000000)         (1.39548450321463056E-003,0.0000000000000000)         (1.70185274541927601E-003,0.0000000000000000)         (7.65111074318805626E-004,0.0000000000000000)         (4.71852464051332877E-004,0.0000000000000000)        (2.35309604326631902E-004,-0.0000000000000000)         (7.17361113636244530E-004,0.0000000000000000)         (3.36768155472975895E-004,0.0000000000000000)         (2.93759047384478385E-004,0.0000000000000000)         (4.57920863286077830E-004,0.0000000000000000)         (2.37661052401533186E-004,0.0000000000000000)         (2.83496290230334446E-004,0.0000000000000000)        (2.69892598177970736E-004,-0.0000000000000000)         (3.94311124374573520E-004,0.0000000000000000)        (1.61054666854530681E-004,-0.0000000000000000)         (2.34588119351620666E-005,0.0000000000000000)         (1.95433779509786794E-005,0.0000000000000000)         (1.37827990228823496E-005,0.0000000000000000)         (9.90053664281639531E-005,0.0000000000000000)        (1.11360045319422929E-004,-0.0000000000000000)         (3.73459117169566194E-005,0.0000000000000000)         (2.10601159518706077E-005,0.0000000000000000)         (9.04634003452996677E-005,0.0000000000000000)         (1.25820354055204031E-004,0.0000000000000000)         (4.01147174621101175E-005,0.0000000000000000)         (1.16472938967308558E-005,0.0000000000000000)         (8.10353580491219294E-006,0.0000000000000000)        (1.63862996353951872E-006,-0.0000000000000000)        (4.28811478226238094E-005,-0.0000000000000000)         (1.35690907670879318E-004,0.0000000000000000)         (6.85747624849401068E-005,0.0000000000000000)        (2.45163086900041108E-005,-0.0000000000000000)         (4.96550756951586336E-006,0.0000000000000000)         (1.88064115305492727E-006,0.0000000000000000)        (1.18378995233844025E-006,-0.0000000000000000)        (1.56856832848552775E-005,-0.0000000000000000)        (1.62321884710721329E-005,-0.0000000000000000)         (6.89412745564979958E-006,0.0000000000000000)         (8.76730025774698426E-006,0.0000000000000000)         (1.40472930800856105E-006,0.0000000000000000)         (1.36773047235065333E-004,0.0000000000000000)        (4.21434387460323636E-005,-0.0000000000000000)         (1.10495471380519611E-004,0.0000000000000000)         (4.69051219814194372E-005,0.0000000000000000)         (4.20519366123276949E-005,0.0000000000000000)         (5.92905213629025842E-006,0.0000000000000000)         (1.31652577141385226E-006,0.0000000000000000)         (1.65667624401261000E-005,0.0000000000000000)         (3.69394848451818522E-005,0.0000000000000000)         (3.79112593432404425E-005,0.0000000000000000)         (4.27423500685573856E-005,0.0000000000000000)         (1.79428348808438802E-005,0.0000000000000000)         (1.24646107461929480E-005,0.0000000000000000)        (1.03306652085282496E-005,-0.0000000000000000)         (7.32158959885415489E-006,0.0000000000000000)         (2.11677115406696115E-005,0.0000000000000000)         (2.35117850380987387E-005,0.0000000000000000)         (1.97032861440449864E-005,0.0000000000000000)         (8.94204299041243346E-006,0.0000000000000000)         (8.16082066271271433E-006,0.0000000000000000)         (5.15019827415137806E-006,0.0000000000000000)         (1.79206695758892576E-006,0.0000000000000000)         (1.34154140125043369E-006,0.0000000000000000)         (4.18011466596859758E-006,0.0000000000000000)        (4.68112335114509893E-006,-0.0000000000000000) 