            #Ek_l1_s1              Vk_l1_s1
  -5.473080383269E-01    2.421943861258E-01
  -8.596359846284E-02    1.418895720337E-01
  -1.401416812749E-02    6.818744418877E-02
   2.377438423982E-06    3.246466946727E-02
   1.403889779887E-02    6.824589545231E-02
   8.607018680253E-02    1.419303322423E-01
   5.478748451924E-01    2.422053935834E-01
