 T
           1
           2
         500
   3.3044705319822398E-003   3.3044705319840162E-003   3.3044705319853485E-003   1.0194546129414839E-002   1.0194546129416615E-002   1.1574927566181614E-002   1.7597296000578577E-002   1.7597296000580354E-002   2.2053321977632212E-002   2.3011063117224673E-002   2.3011063117291286E-002   2.8609322608202703E-002   2.8924019253568911E-002   2.8924343947110298E-002   3.4888543185935816E-002   3.4892780188356731E-002   3.9126407880898828E-002   4.1191809353352760E-002   4.2059747550699633E-002   4.6831226346992771E-002   5.0501884065984992E-002   5.2470822873078582E-002   5.5331579511794349E-002   5.6806255256861338E-002   6.0394666401959007E-002   6.3141330297013631E-002   6.4349929477541590E-002   6.5583158347659154E-002   6.7937053146487791E-002   6.8602184486998841E-002   7.0715204344283134E-002   7.2956854672060256E-002   7.6225830167568898E-002   7.7276889444676922E-002   8.0974642035468225E-002   8.1850499668211896E-002   8.6995057272384546E-002   8.8166895710374948E-002   9.0813800609063300E-002   9.1719005151791322E-002   9.4098765250252292E-002  0.10090148698929502       0.10132096829835158       0.10484283850614728       0.10638192381567491       0.10948686896522020       0.11143087908567617       0.11468627433767997       0.11846078559292961       0.11938810121310395       0.12285250574708373       0.12475557602721166       0.12622628689518578       0.13208248285690605       0.13558616877718466       0.13690097068985718       0.13993963500826112       0.14360925575685668       0.14706936195451226       0.14958754134443009       0.15173675556638289       0.15625116291474406       0.15955619130834009       0.16144935560515972       0.16383417394697020       0.16444358412081561       0.16850637680821912       0.17195518146158673       0.17354599646830593       0.17622698197307818       0.17675363462829496       0.18311947219502533       0.18381356388393710       0.18474336003781211       0.18727038689524766       0.19645217784206936       0.19769697040326761       0.20446297793839463       0.20945112968197721       0.21498595275365950       0.21995489474949936       0.22011752329460732       0.22708900451523473       0.23146538410232909       0.23156110659487217       0.23295304665563865       0.24166449233056397       0.24166449243441601       0.71464485776761499       0.71730458279028042       0.72413390345011397       0.72486406874497744       0.72830435070008281       0.73394793314854390       0.73578123277281327       0.73994896323338155       0.74504539349298193       0.74613853130497398       0.75000205082482951       0.75716545041260641       0.75973167189027002       0.76034483558707500       0.76616069823490296       0.77188399881123249       0.77732618261715292       0.78145725931904719       0.78365747348738801       0.78804795309929232       0.79319489234862361       0.79850949389198367       0.80795341748750893       0.81366267532944825       0.81805446032503726       0.82223695477020264       0.82904361471588883       0.83599706663493345       0.84179539293281813       0.85347639890696403       0.85958355806131070       0.86537426209361090       0.87182637015102271       0.87883531813461468       0.88636174625884290       0.90012017844198056       0.90201429984477643       0.91262250026831016       0.92044579582704333       0.92750879319179402       0.95084606891736345       0.97712482787159871       0.98679894403107626       0.99137384136590612       0.99389809793831452       0.99716744735318263        1.0081787218060325        1.0213489213769169        1.0292222666843087        1.0336449548455189        1.0414093735131160        1.0454744401449751        1.0565974418007342        1.0647245558294078        1.0718236947328339        1.0789764838245954        1.0887603336878422        1.0934327956051944        1.1009786544029518        1.1157797172846766        1.1249396458031333        1.1279084984801546        1.1315167380084141        1.1387790603169170        1.1478431417412738        1.1553337893996625        1.1667768621141692        1.1763527700067966        1.1794174545943934        1.1834279757798172        1.1865060215946051        1.1973291256882015        1.1976082240292119        1.1989066863146125        1.2107444230473057        1.5961686572539271        1.6000534337806087        1.6032369589502917        1.6072206556719433        1.6133925566410690        1.6174403861969975        1.6248373523405339        1.6283597489242065        1.6364522182178671        1.6440518345975830        1.6478596139103654        1.6537540282211831        1.6613334596480833        1.6711738673693401        1.6796941997426256        1.6859474922971620        1.6913152429339222        1.6986525241971517        1.7122709152894025        1.7231522361764851        1.7269016240247430        1.7370214848775689        1.7491014452420275        1.7608411821386243        1.7716399908385954        1.7830047769945838        1.7951222235946080        1.8060323357157857        1.8149530837205883        1.8228595000035899        1.8390393269619598        1.8468226879381835        1.8559846669240929        1.8657031042277172        1.8785609475343812        1.8929583796002789        1.9020791824236167        1.9121307485446375        1.9224661818457942        1.9378475170418086        1.9488952178696910        1.9582194098286643        1.9725274878595904        1.9914109399241200        1.9959079621463587        2.0038618600623188        2.0142402222783455        2.0350425714098423        2.0413058681411576        2.0493420646215958        2.0580767431356932        2.0691669347395503        2.0860444149891779        2.0955250997403021        2.1052694156496301        2.1089515214626071        2.1166096780370403        2.1294598758708307        2.1453484526184652        2.1544793588711255        2.1672919253604026        2.5197053472293249        2.5225851443922429        2.5266561069776898        2.5325993465604713        2.5333427602995968        2.5394216734372552        2.5439621633042018        2.5513441734405942        2.5646844894199701        2.5695832099009683        2.5744980955225363        2.5804950450573565        2.5919093356635421        2.6027581357101450        2.6113067910709091        2.6226222326541024        2.6329721066533556        2.6471965528440471        2.6570226923992779        2.6700237596362331        2.6818517567637059        2.7034751207327057        2.7104397403778959        2.7157801799873007        2.7263142417237400        2.7412891844176395        2.7510434013915566        2.7644718922933000        2.7753017974691474        2.7892816811072336        2.7988575983545045        2.8109417736053697        2.8248739419036895        2.8347988118817793        2.8443123612817889        2.8587887258417086        2.8674009197036892        2.8780105374410909        2.8886106258901902        2.8975158389687525        2.9090856889157206        2.9240161143074070        2.9326994777333413        2.9399666818570958        2.9485423301437770        2.9584659983121946        2.9691512775747935        2.9773892045178476        2.9835769952310995        2.9926077642151427        2.9999252473337972        3.0066575150689139        3.2497754707814264        3.3452510995915548        3.3549041133840674        3.3575310957886999        3.3594360455999630        3.3686640120315494        3.3721845774769368        3.3814442790809029        3.3966808142648617        3.3984474881607483        3.4100655491754912        3.4211823606913456        3.4293825821361512        3.4472683037511795        3.4509268558437154        3.4599253621809454        3.4699060750255577        3.5020616824806603        3.5067997058782190        3.5116995573542802        3.5214665867132040        3.5327648468499739        3.5462954570775156        3.5566193018629773        3.5678237931290453        3.5816402301162356        3.5910838652915462        3.6035785032060179        3.6193129229047263        3.6286409728089426        3.6447424404088666        3.6541221141964040        3.6642476150147325        3.6799118597895242        3.6901667263589979        3.7030743501770509        3.7076377163456997        3.7178404500963835        3.7267284983327356        3.7383333403637438        3.7511636226969856        3.7603883690841959        3.7694464116240622        3.7798554415295862        3.7906846917767298        3.7986973678056244        3.8089588820799101        3.8193057770475116        3.8292879217609586        3.8414772039002552        3.8502061151627958        3.8570501341889876        3.8640416416029355        3.8718054535682587        3.8805902448357359        3.8883052347292946        3.8983256102997950        3.9024753728580217        3.9091879312978852        3.9139638120749876        3.9194877740246032        3.9240602259073989        3.9304875630042293        4.3142291699481934        4.3155410436874426        4.3235843188550511        4.3264480793831428        4.3285911330927949        4.3297068044140659        4.3373084385705400        4.3398262532664527        4.3434426451257417        4.3499983547565062        4.3602657471814865        4.3669121058083089        4.3763662007786852        4.3790719363633706        4.3836974216191233        4.3892576693468239        4.4001999293100411        4.4136496711735944        4.4188245333188956        4.4244367759703813        4.4313179834526437        4.4386533145535267        4.4469697078829711        4.4610342433411692        4.4693523663303374        4.4732616126562093        4.4816980578396226        4.4929655008083547        4.5036359378501185        4.5177692114656089        4.5248857263132933        4.5313700742533474        4.5391621524640993        4.5821829907055669        4.5891431041095752        4.5936537017816370        4.5994899908097526        4.6041298119627427        4.6147525673883898        4.6205531426827520        4.6265011002742398        4.6300900483493628        4.6373274591165901        4.6409753540854881        4.6509664381599496        4.6606158412876670        4.6642158537696368        4.6746173718242350        4.6762959178760770        4.6870164741808154        4.6909833356500492        4.6974547347524052        4.7037456086541987        4.7085916880916088        4.7185892636340903        4.7231819683486389        4.7293296508149627        4.7337638570539315        4.7389288479129039        4.7443355891887808        4.7447202355031797        4.7499483580706130        4.7549305411860878        4.7610186383809392        4.7665507351114149        4.7697253164156823        4.7772797635354944        4.7807663881164597        4.7873724225828953        4.7910515578221249        4.7910849890303613        4.7989723303057943        4.8020414406193499        4.8122054264879868        5.2699125643439011        5.2855858651033785        5.2855858651036876        5.2942722483943516        5.2956702937744229        5.3001278598892512        5.3036831524497590        5.3071139181234503        5.3122347738391609        5.3153897522609670        5.3165707488036471        5.3177771921360968        5.3227638945527360        5.3294018478770546        5.3295509931731697        5.3307015536590665        5.3387287194431128        5.3399122201401514        5.3424916139675380        5.3440595719121928        5.3499172492925302        5.3504845752406194        5.3516968788147405        5.3551463944221931        5.3556012992881499        5.3586883007710160        5.3638370892446599        5.3657579002196130        5.3708898248961674        5.3744393104521748        5.3774302050933303        5.3803994490972462        5.3832332960581244        5.3868259457965824        5.3894288394982812        5.3915050835897489        5.3950564585592033        5.4000063288388613        5.4009141408794754        5.4024243158640690        5.4048036160249477        5.4090145744457088        5.4126097514080378        5.4157308883741564        5.4192129137566027        5.4230664337590389        5.4235338658935817        5.4260314442084816        5.4319937861707261        5.4330680688236548        5.4354837928584452        5.4390661615351554        5.4402209469406451        5.4452470634371135        5.4461841533347268        5.4499153414673049        5.4509545910783643        5.4519077518592240        5.4542486837923390        5.4564849411993182        5.4585589153224987        5.4599459089036699        5.4616408907743654        5.4628381612709243        5.4667695683968880        5.4702035522856569        5.4703928965972519        5.4747011653186330        5.4767244126930192        5.4803319129545676        5.4837389804686012        5.4860258527826167        5.4923214739544335        5.4924115529111592        5.4982931251722569        5.4982931958388992        5.4986213423776018        5.5042127853052643        5.5042127867064465        5.5051643744120300        5.5096208844196077        5.5096208844196148        5.5170372816522253        5.5170372816522280        5.5235701159812027        5.5239328097749558        5.5239328097749567     
        (3.74409340459613328E-004,-0.0000000000000000)         (2.83333032961549398E-003,0.0000000000000000)        (2.09869723180276021E-003,-0.0000000000000000)        (1.10063758701773917E-006,-0.0000000000000000)        (2.05465120297711864E-007,-0.0000000000000000)               (0.0000000000000000,0.0000000000000000)         (2.98441227156656230E-003,0.0000000000000000)         (6.03179806949761046E-003,0.0000000000000000)        (1.60491150489888707E-029,-0.0000000000000000)        (1.81579513917456666E-003,-0.0000000000000000)        (1.64819724233077356E-009,-0.0000000000000000)         (1.63231491691331870E-006,0.0000000000000000)         (9.46863681665067581E-023,0.0000000000000000)         (1.60992875906505826E-003,0.0000000000000000)         (9.09978551597407419E-026,0.0000000000000000)        (3.40955488592286873E-005,-0.0000000000000000)         (2.99833550857999595E-031,0.0000000000000000)        (1.87687243733729103E-004,-0.0000000000000000)        (8.95576197881073115E-029,-0.0000000000000000)        (1.40378348103829338E-005,-0.0000000000000000)         (3.20203312309770286E-005,0.0000000000000000)         (3.70981844651991624E-003,0.0000000000000000)        (2.36314367795615548E-007,-0.0000000000000000)        (1.65460174121731605E-004,-0.0000000000000000)         (2.03301459678486163E-003,0.0000000000000000)        (1.75506712321133509E-007,-0.0000000000000000)         (1.07954915059059985E-003,0.0000000000000000)        (9.05875917025457302E-004,-0.0000000000000000)        (5.55156505628271353E-008,-0.0000000000000000)         (1.57387611379419627E-004,0.0000000000000000)         (7.91171128184705470E-006,0.0000000000000000)        (1.54912943679056959E-004,-0.0000000000000000)        (9.31890922311507004E-004,-0.0000000000000000)        (3.68404077305524116E-005,-0.0000000000000000)        (5.69650898741994464E-005,-0.0000000000000000)         (1.78734761514555949E-005,0.0000000000000000)         (6.53655459058169924E-005,0.0000000000000000)         (1.67134165048594010E-005,0.0000000000000000)        (1.30086891053436110E-008,-0.0000000000000000)        (4.37605922781284016E-007,-0.0000000000000000)        (2.32967663478841197E-005,-0.0000000000000000)         (4.23126793301406893E-004,0.0000000000000000)         (1.88950417158106878E-005,0.0000000000000000)        (1.00025090731078838E-005,-0.0000000000000000)        (5.90936333000529722E-007,-0.0000000000000000)        (4.24199273799502974E-007,-0.0000000000000000)         (1.23912427003029508E-004,0.0000000000000000)         (2.25379700464413467E-004,0.0000000000000000)        (1.27088602953892456E-005,-0.0000000000000000)         (2.12555718173941168E-005,0.0000000000000000)        (1.51242894016856208E-005,-0.0000000000000000)        (3.78185497927503847E-005,-0.0000000000000000)        (7.32002074553989751E-006,-0.0000000000000000)         (1.90398242204013822E-006,0.0000000000000000)         (3.80161492153828898E-006,0.0000000000000000)        (1.33947014778265746E-006,-0.0000000000000000)         (1.73591997048895029E-007,0.0000000000000000)        (1.04048278180569238E-006,-0.0000000000000000)         (2.77431847008413750E-008,0.0000000000000000)        (3.55239831839982372E-005,-0.0000000000000000)         (1.04606507323536469E-006,0.0000000000000000)         (1.63172745360498856E-005,0.0000000000000000)        (5.30950337629683795E-007,-0.0000000000000000)        (9.97258154479048164E-006,-0.0000000000000000)        (1.60857033787206993E-007,-0.0000000000000000)        (9.06254158277675771E-007,-0.0000000000000000)        (2.51489003714798717E-008,-0.0000000000000000)         (3.06633924831903903E-006,0.0000000000000000)        (1.96703182181281816E-007,-0.0000000000000000)        (1.95695040911537940E-007,-0.0000000000000000)         (7.18562780157685880E-010,0.0000000000000000)         (1.58096926463654386E-007,0.0000000000000000)        (1.22176523068148698E-010,-0.0000000000000000)        (1.86963199391883399E-011,-0.0000000000000000)        (2.59486603827537474E-010,-0.0000000000000000)        (1.10794815147282188E-009,-0.0000000000000000)         (5.20993995858962237E-007,0.0000000000000000)        (4.21624900020728990E-010,-0.0000000000000000)         (2.60350013088487910E-007,0.0000000000000000)         (1.10134440941189841E-008,0.0000000000000000)         (1.07854013118554502E-010,0.0000000000000000)         (2.26253092421793242E-008,0.0000000000000000)         (1.00518114007148342E-010,0.0000000000000000)        (7.36625724486761282E-033,-0.0000000000000000)         (1.65079968834676663E-009,0.0000000000000000)         (4.69330526980327826E-034,0.0000000000000000)         (1.12366075736851352E-024,0.0000000000000000)        (2.96062061560941085E-011,-0.0000000000000000)        (7.03429152182956235E-002,-0.0000000000000000)         (6.59176971065037415E-026,0.0000000000000000)        (3.22132086509155672E-004,-0.0000000000000000)        (2.31088788534393949E-002,-0.0000000000000000)        (9.08768514045631311E-003,-0.0000000000000000)        (7.69310911539008261E-006,-0.0000000000000000)         (7.66172156097985353E-003,0.0000000000000000)        (1.74443445361841600E-004,-0.0000000000000000)        (1.67950075160110778E-006,-0.0000000000000000)         (4.93665892617005169E-004,0.0000000000000000)        (1.02483480664068377E-004,-0.0000000000000000)         (3.13375343095528348E-005,0.0000000000000000)        (1.25990601935312770E-004,-0.0000000000000000)         (2.01714319709512353E-003,0.0000000000000000)         (2.70148154671173745E-003,0.0000000000000000)         (2.22697597294037189E-003,0.0000000000000000)        (6.28708486265226502E-004,-0.0000000000000000)        (1.43868506178869069E-004,-0.0000000000000000)         (1.47901127131749632E-004,0.0000000000000000)        (8.74434327258669217E-005,-0.0000000000000000)        (3.39235094447467710E-005,-0.0000000000000000)        (8.45853390786700499E-006,-0.0000000000000000)        (3.62280075639797466E-004,-0.0000000000000000)         (3.08312463211087704E-005,0.0000000000000000)        (8.40683867074713110E-005,-0.0000000000000000)        (2.90368280062300555E-005,-0.0000000000000000)        (1.81868970050732653E-005,-0.0000000000000000)        (7.58107732630740419E-007,-0.0000000000000000)        (6.13736026589667147E-007,-0.0000000000000000)         (1.89117340725888502E-006,0.0000000000000000)        (1.84306011114977980E-006,-0.0000000000000000)        (1.21829157922825198E-006,-0.0000000000000000)        (2.10501670948315120E-007,-0.0000000000000000)         (5.68303118559173533E-008,0.0000000000000000)        (8.16484691718534872E-009,-0.0000000000000000)         (7.35036705068194095E-009,0.0000000000000000)        (1.70854679755621738E-008,-0.0000000000000000)         (2.02750967485658514E-009,0.0000000000000000)        (1.58562014777888047E-010,-0.0000000000000000)         (5.55214707642201864E-012,0.0000000000000000)        (8.98299225398458365E-014,-0.0000000000000000)        (1.58870915094939461E-002,-0.0000000000000000)        (1.28279186025413521E-003,-0.0000000000000000)         (1.33484621383139365E-005,0.0000000000000000)        (5.39476918380743140E-005,-0.0000000000000000)        (2.84856812705502286E-004,-0.0000000000000000)        (3.60679273281621677E-005,-0.0000000000000000)         (3.62774493437181854E-004,0.0000000000000000)        (7.59938654580340439E-005,-0.0000000000000000)         (1.92431472850561564E-004,0.0000000000000000)         (5.14190856453157263E-005,0.0000000000000000)        (4.48814819103972071E-005,-0.0000000000000000)         (1.68596977871949068E-005,0.0000000000000000)         (4.27859372677070543E-005,0.0000000000000000)         (1.86681492563204359E-005,0.0000000000000000)         (2.99124097651714580E-005,0.0000000000000000)         (6.80416539378640333E-006,0.0000000000000000)         (4.84437259892023233E-006,0.0000000000000000)        (3.93404337036733038E-007,-0.0000000000000000)        (2.70379124471889916E-006,-0.0000000000000000)         (5.42132962226698412E-007,0.0000000000000000)         (1.30987179658009276E-006,0.0000000000000000)         (7.34076301195212502E-007,0.0000000000000000)         (7.46024789271811457E-008,0.0000000000000000)         (6.09392082803126192E-009,0.0000000000000000)         (5.80890805556835037E-011,0.0000000000000000)         (3.01925903687523480E-007,0.0000000000000000)        (1.92691066790760806E-008,-0.0000000000000000)        (2.43135315053944755E-011,-0.0000000000000000)         (2.51465386414764513E-010,0.0000000000000000)        (2.40052424098245954E-009,-0.0000000000000000)         (7.82274310422734863E-011,0.0000000000000000)         (4.22190349691077858E-011,0.0000000000000000)        (1.21701084180500108E-012,-0.0000000000000000)        (2.60718974501477852E-012,-0.0000000000000000)        (5.90684537185865496E-003,-0.0000000000000000)         (2.21855714384292696E-013,0.0000000000000000)        (2.52876553929609572E-003,-0.0000000000000000)         (4.39542737737076347E-003,0.0000000000000000)        (5.82416066179125970E-004,-0.0000000000000000)         (3.40566311307619789E-003,0.0000000000000000)        (2.66164774355318414E-004,-0.0000000000000000)        (9.98825707244911784E-004,-0.0000000000000000)         (2.25019142775955833E-002,0.0000000000000000)         (1.72635439346583829E-003,0.0000000000000000)         (9.78871610408446266E-003,0.0000000000000000)         (7.98549577733621840E-003,0.0000000000000000)        (7.50687876151681210E-003,-0.0000000000000000)              (0.12730678548079971,0.0000000000000000)         (2.30631524506847430E-002,0.0000000000000000)         (4.49740501007848681E-002,0.0000000000000000)         (1.87483775181351772E-002,0.0000000000000000)         (7.06318249829382492E-003,0.0000000000000000)        (2.49626593600246706E-003,-0.0000000000000000)         (1.08298173852845632E-002,0.0000000000000000)         (9.56082424661087484E-003,0.0000000000000000)        (4.75374733146848895E-003,-0.0000000000000000)         (1.49648608778708641E-003,0.0000000000000000)        (8.09788349964765588E-004,-0.0000000000000000)         (9.89640896138711595E-004,0.0000000000000000)        (4.62140066320520246E-004,-0.0000000000000000)         (2.08451622919878475E-003,0.0000000000000000)         (2.78668634230514909E-003,0.0000000000000000)         (1.17415501916407882E-003,0.0000000000000000)         (7.50219544500861928E-004,0.0000000000000000)         (1.35705912234661448E-003,0.0000000000000000)         (7.87035423537097703E-004,0.0000000000000000)        (8.58440582906191442E-004,-0.0000000000000000)         (3.06098514571033768E-004,0.0000000000000000)        (2.59774466820467641E-005,-0.0000000000000000)        (1.36260299568649780E-004,-0.0000000000000000)        (1.05360505655389990E-004,-0.0000000000000000)         (1.58273903565956560E-005,0.0000000000000000)        (2.17298266319453604E-006,-0.0000000000000000)        (1.25918320011299889E-005,-0.0000000000000000)         (2.75851447169280817E-006,0.0000000000000000)        (8.43902755037280376E-007,-0.0000000000000000)        (3.06789044601822159E-008,-0.0000000000000000)         (1.13974902319368608E-006,0.0000000000000000)         (1.52814825389082264E-007,0.0000000000000000)        (6.34805270618842826E-008,-0.0000000000000000)         (1.08974044750258256E-008,0.0000000000000000)         (4.75775233503391957E-009,0.0000000000000000)         (1.93016189223007503E-009,0.0000000000000000)         (4.98298128845852396E-009,0.0000000000000000)        (4.88228482541559922E-010,-0.0000000000000000)        (3.44495678694180994E-011,-0.0000000000000000)        (1.81322758576121322E-009,-0.0000000000000000)         (1.53253172294150631E-010,0.0000000000000000)         (1.94980027401389532E-011,0.0000000000000000)        (2.00987171654128577E-012,-0.0000000000000000)        (9.78087791912678847E-013,-0.0000000000000000)        (2.74275782141835079E-014,-0.0000000000000000)        (6.33347040215613659E-014,-0.0000000000000000)         (3.84845787193945537E-015,0.0000000000000000)         (3.10439924096648197E-016,0.0000000000000000)         (3.35356320154734570E-004,0.0000000000000000)         (3.89526610208021726E-006,0.0000000000000000)         (3.89893003688896548E-005,0.0000000000000000)         (1.34640028909404881E-005,0.0000000000000000)        (5.40001863938422018E-004,-0.0000000000000000)        (6.12297499378658518E-006,-0.0000000000000000)        (2.97129292012467518E-005,-0.0000000000000000)        (2.85146790154122871E-006,-0.0000000000000000)        (4.13392080616854191E-005,-0.0000000000000000)        (2.47880854441538429E-004,-0.0000000000000000)        (1.23421127512980314E-004,-0.0000000000000000)         (6.67295241915222650E-005,0.0000000000000000)         (1.35937728930139921E-005,0.0000000000000000)         (1.36242428952563056E-005,0.0000000000000000)         (5.05411878960486375E-005,0.0000000000000000)         (1.60376644083905816E-005,0.0000000000000000)         (6.89324392888730304E-006,0.0000000000000000)         (4.35998811486285939E-006,0.0000000000000000)         (4.43506747348554402E-006,0.0000000000000000)         (2.88443116858510395E-006,0.0000000000000000)         (2.30615702834008925E-006,0.0000000000000000)        (2.03429381530305321E-004,-0.0000000000000000)        (1.28455006960788095E-004,-0.0000000000000000)        (1.67525270464683384E-004,-0.0000000000000000)         (2.80694592005977077E-005,0.0000000000000000)        (4.12786013309494309E-005,-0.0000000000000000)        (5.29188769463088138E-005,-0.0000000000000000)        (1.42315091395578519E-005,-0.0000000000000000)         (1.43364371929240070E-005,0.0000000000000000)         (1.66820914379075662E-005,0.0000000000000000)         (1.92265498580798022E-005,0.0000000000000000)        (7.78760183260149722E-006,-0.0000000000000000)        (9.89279318586522099E-006,-0.0000000000000000)        (1.89391624341777107E-005,-0.0000000000000000)        (4.90504781792563906E-006,-0.0000000000000000)        (2.27474397964465346E-006,-0.0000000000000000)        (3.30031032353527299E-006,-0.0000000000000000)        (9.81132922688175951E-007,-0.0000000000000000)        (4.79518855297518123E-007,-0.0000000000000000)        (2.93315351140943641E-007,-0.0000000000000000)        (2.14699088746483920E-008,-0.0000000000000000)         (4.26856701218418479E-008,0.0000000000000000)        (3.18387769446818629E-008,-0.0000000000000000)         (1.55067023849729065E-008,0.0000000000000000)        (2.27935199186683659E-009,-0.0000000000000000)         (4.93890092521650094E-010,0.0000000000000000)        (4.36180084721885765E-011,-0.0000000000000000)         (4.43163762783530587E-011,0.0000000000000000)         (4.48318438478597477E-012,0.0000000000000000)         (2.84696533544981149E-014,0.0000000000000000)         (2.43708162396958651E-014,0.0000000000000000)         (3.81297430594289800E-018,0.0000000000000000)               (0.0000000000000000,0.0000000000000000)        (9.11379794974170848E-011,-0.0000000000000000)         (5.83668347059316729E-011,0.0000000000000000)        (1.85851900895495205E-010,-0.0000000000000000)        (3.35003144744365488E-009,-0.0000000000000000)         (2.15606307125043665E-010,0.0000000000000000)        (8.56324225214153482E-009,-0.0000000000000000)        (2.71718886627292479E-010,-0.0000000000000000)        (1.34819773847094529E-008,-0.0000000000000000)        (5.04661217964814756E-009,-0.0000000000000000)        (6.16112181535223575E-008,-0.0000000000000000)         (1.46568766576729502E-008,0.0000000000000000)        (2.89526879591594845E-009,-0.0000000000000000)         (5.77101687335343961E-008,0.0000000000000000)         (1.11200036659355385E-008,0.0000000000000000)         (2.18616014370984412E-008,0.0000000000000000)        (3.88276907030675457E-009,-0.0000000000000000)         (2.24266065159628029E-004,0.0000000000000000)        (4.64804137770705013E-007,-0.0000000000000000)         (3.82117587420317792E-005,0.0000000000000000)        (8.53023537913858707E-006,-0.0000000000000000)         (6.91525701582926719E-007,0.0000000000000000)         (4.52858435144573989E-006,0.0000000000000000)         (3.24292670223481277E-006,0.0000000000000000)         (8.24061717695432172E-007,0.0000000000000000)         (2.00630086152632754E-007,0.0000000000000000)         (7.10232312343627182E-007,0.0000000000000000)         (3.46093143568965441E-007,0.0000000000000000)         (1.14600222493713156E-006,0.0000000000000000)         (2.94271742661640854E-007,0.0000000000000000)        (1.32175937773624899E-006,-0.0000000000000000)         (6.67816562747345775E-007,0.0000000000000000)         (4.03167712702440600E-006,0.0000000000000000)         (2.66267904911470484E-006,0.0000000000000000)        (3.53949187837082057E-006,-0.0000000000000000)         (3.21018543705459326E-005,0.0000000000000000)         (2.39894128909116973E-005,0.0000000000000000)         (2.59641577403222765E-005,0.0000000000000000) 