            #Ek_l1_s1              Vk_l1_s1
  -9.343709782937E-01    2.842105245914E-01
  -4.659776900938E-02    6.101663249507E-02
  -1.044731024015E-02    5.181408447338E-02
  -6.246875126957E-06    3.096030424905E-02
   1.040971523194E-02    5.176257607086E-02
   4.647081966387E-02    6.104069311949E-02
   9.331469405438E-01    2.840729293749E-01
