 T
           1
           2
         500
  -2.5642663892089246E-003  -2.5642663892084805E-003  -2.5642663892080364E-003  -2.5642663892053719E-003   2.6152227058253708E-003   2.6152227058262589E-003   2.6152227058267030E-003   2.6244597769902178E-003   2.6244597845250794E-003   2.6244597845255235E-003   2.6290783484728131E-003   2.6290783485012348E-003   7.8121782290332398E-003   7.8131859170151863E-003   7.8131859170156304E-003   7.8131859170160745E-003   1.7079753323620661E-002   2.5357312599475712E-002   2.5357312624089356E-002   2.5366531484354304E-002   2.5366532410254550E-002   2.5367133785476614E-002   2.5457944187357029E-002   2.5457971739353269E-002   2.5467202332742467E-002   2.5467204265276155E-002   3.0546016736494597E-002   3.0546016878242099E-002   3.0555264976243279E-002   3.0555265032161216E-002   3.0646717023542269E-002   3.0646786622861022E-002   3.0655912924204998E-002   3.0655912956377041E-002   4.8204649311766712E-002   4.8204659007553108E-002   4.8204667019408731E-002   4.8204859570303960E-002   5.3292725150295261E-002   5.3292740913256864E-002   5.3384153372445287E-002   5.3384159277369392E-002   5.3393375484990901E-002   5.3393393193197802E-002   5.3397998374301814E-002   5.3494057036146625E-002   5.8582101616829974E-002   5.8582119325759852E-002   5.8582124064873398E-002   7.6126243947307159E-002   7.6129884253963276E-002   7.6135456286509307E-002   7.6135471509973129E-002   7.6226875549355366E-002   7.6236140225491411E-002   7.6236145520876430E-002   8.1314948083980543E-002   8.1324189778262390E-002   8.1324204882542439E-002   8.1415648385917194E-002   8.1424850817021888E-002   8.1424856097711995E-002   8.6472966985546851E-002   9.8973596313160606E-002   9.8973596313161494E-002   9.9050994283313099E-002  0.10415308541817581       0.10415308542355639       0.10416232248688395       0.10416232249790092       0.10416694104586144       0.10416694105591251       0.10935104861935940       0.10935104861936029       0.10935104861936518       0.55532376599586697       0.55532376599586897       0.55574455848423621       0.55574455848423865       0.56051248851823021       0.56051248851823154       0.56093327366154244       0.56093327366154844       0.57604548752743368       0.57806280165392709       0.57858425392501611       0.58325085446137348       0.58325152088183829       0.58335366116904708       0.58367379592637536       0.58377292753368093       0.58377297814599149       0.58844024585339194       0.58896168341287058       0.60599055414085812       0.60609269611205363       0.60651349085540551       0.60661265221978589       0.61117816154331073       0.61128118420962929       0.61170219893660915       0.61180130750288675       0.62883172562661693       0.62935318622865211       0.63400625373620767       0.63443824092370082       0.63454067562384586       0.63973060995579156       0.65728203494312964       0.66240479844561406       0.66645299939155422       0.66681537962499315       0.66698723626541678       0.67164175275906168       0.67217594683559345       0.68919730633380349       0.68983218017949510       0.69366340293475393       0.69438187268924301       0.69491945099789665       0.69497134426428064       0.69501728783664940       0.69957028162421464       0.70020963160781813       0.71712150125345886       0.71725103514752453       0.71775617640351186       0.71776278232276347       0.72238038319972575       0.72295143450660793       0.72304457742840555       0.73996625183091624       0.74060111772043635       0.74516102627730096       0.74568925088826643       0.74578838109571799       0.75034373796091325       0.75097856920168526       0.76799126550174535       0.76852242830322481       0.76852510092802451       0.77317364670495592       0.77317993023702813       0.77371380912841259       0.77372044974633414        1.1740192363370536        1.1740192363449358        1.1792079522059069        1.1792092051851579        1.1797683569320183        1.1843966680075526        1.1999573207152761        1.2019474158368411        1.2019486651443776        1.2020492894287562        1.2071362264686440        1.2071375494978673        1.2072380169953520        1.2247881690133418        1.2298762965474210        1.2299773429958898        1.2351655695378352        1.2523831807040890        1.2527174259113374        1.2714201128128884        1.2761082916615734        1.2766011999785651        1.2766088453553115        1.2771105952780073        1.2817975622918520        1.2993494236024945        1.2997970041866751        1.2999517753302396        1.3045185823872394        1.3051367443450912        1.3089284999923398        1.3227062113905150        1.3241877191587632        1.3278442973136622        1.3292457006956420        1.3353279537220029        1.3506182213350877        1.3578687072148985        1.3580712361560749        1.3632473747887563        1.3632676636594936        1.3809151637546035        1.3857819960058357        1.3861018356253392        1.3912913379063319        1.4088401625954685        1.4140457910216080        1.4316840865451783        1.4368690425656803        1.4420615574370188        1.6061864221254591        1.6081539910617246        1.6082073699186381        1.6133427217216008        1.6133960862348662        1.6308923985286561        1.6310460974649255        1.6360807824365939        1.6361377457039055        1.6362351032428917        1.6409130846668840        1.6414224120880521        1.6551126276155808        1.6588197948988512        1.6589762248479629        1.6636504045445364        1.6641519601826646        1.6818136130316197        1.6869730545677193        1.6877653659423397        1.6924498674756165        1.7097450616860859        1.7149337864335346        1.8453901632899168        1.8459707148061253        1.8505788783753157        1.8511594321464289        1.8681300401549710        1.8688113816362983        1.8733081678457515        1.8738983758096415        1.8739998844051022        1.8791875113350334        1.8960581976698245        1.8967396429095358        1.9019162836911661        1.9158642012280365        1.9397924084624407        1.9402610087762797        1.9449811582938945        1.9454497196746650        1.9519852394445201        1.9625379742973823        1.9631053709807185        1.9677260839710429        1.9682886736609011        1.9735612069903599        1.9904603414861017        1.9910308435589998        1.9962033811006115        2.0140460714455828        2.0190481676553897        2.0401476068480844        2.0420356977639043        2.0469815558429496        2.1755527628940849        2.2228644111507339        2.2277898189550700        2.2280523554551461        2.2280534410311130        2.2283252163529919        2.2332418600491377        2.2505717303997006        2.2507923483155130        2.2511630973668759        2.2559786058174520        2.2563370270353649        2.2739447388438405        2.2759578914778817        2.2790949299120058        2.2814126126945760        2.3018781348066870        2.3172152411748153        2.3224039575095849        2.3224048689990315        2.3275926736042449        2.3451435150337394        2.3451537872019697        2.3503322205655075        2.3504324175786957        2.3679841727442485        2.3730739792849280        2.3731739325305621        2.3783971014435012        2.3959127593861749        2.4011009431723562        2.4143667605062364        2.4239409870791531        2.4291304943925849        2.5547161395403259        2.5598986991450028        2.5599048612000019        2.5650935828511039        2.5826400213840928        2.5826461685452555        2.5827468340983581        2.5878346640982324        2.5879351290273229        2.5888134027250427        2.6054850718170970        2.6105732449022359        2.6106752802762268        2.6158625259654640        2.6334146341525444        2.6334271541342527        2.6386093457516688        2.6562539828579541        2.6614427472564390        2.6666314455064404        2.6827169326341993        2.8325820351293474        2.8329167209618067        2.8377707648942572        2.8381054438270095        2.8553211311416735        2.8557564306492038        2.8605128238056077        2.8609296788761300        2.8612837923563554        2.8660529279918534        2.8834719872541621        2.8841009615606641        2.8914728635652995        2.8914805666114329        2.8966615810336149        2.8966693012302120        2.9142144067806948        2.9143161848217716        2.9194029529754757        2.9195053871584160        2.9246915953946582        2.9421418816447993        2.9422469506394262        2.9474213838549121        2.9572577874571961        2.9655886578826816        2.9713270710975341        2.9885344837931833        2.9892176821693996        2.9937231981846946        2.9944063996682728        3.0112745677595205        3.0120584393374612        3.0164632972613492        3.0171458624706182        3.0172471603983477        3.0224358702878344        3.0392033745620828        3.0399866130039692        3.0415503367340646        3.0446514901253519        3.0451826678793426        3.0600920092499342        3.0625547146686678        3.0628277469458443        3.0679082653667509        3.0680142083317747        3.0727645017747585        3.0732048517965800        3.0900723472390110        3.0907555438398058        3.0952610616283920        3.0959442613386754        3.4961699995638753        3.4961699995639361        3.5011288643489547        3.5013587288836838        3.5013591468031455        3.5015986901657628        3.5065474498826106        3.5075205457772980        3.5238667772603414        3.5240988610705601        3.5241994223526856        3.5244352378147217        3.5244371984121541        3.5290555251145070        3.5292875871162241        3.5293881587288691        3.5296259034538204        3.5466053811504645        3.5469391208069667        3.5472750907212061        3.5520082373427275        3.5521810276729742        3.5524565051130716        3.5565500820725093        3.5576429670608420        3.5741775680970633        3.5748674570434860        3.5752058219900542        3.5799601112209429        3.5803634745905577        3.5976210477830519        3.5978127905636148        3.6029353075762831        3.6068810117273467        3.6073625107260003        3.6125482602238366        3.6125512293586626        3.6177399476567018        3.6352887716702917        3.6352917329295060        3.6353855299524787        3.6353920794503094        3.6404763395297612        3.6404804409146214        3.6405750928080529        3.6405809989230660        3.6581314030125847        3.6581314426180946        3.6632194764161046        3.6633183699942196        3.6633213302647043        3.6633575989680147        3.6684964304979530        3.6685088792801253        3.6860577030958233        3.6860606621267928        3.6861580899600339        3.6861612116473448        3.6912464113927124        3.6912493840736298        3.6913471038450885        3.6913500616099446        3.7089000931871903        3.7089003733320065        3.7140861228309019        3.7140890919646790        3.7140905760439988        3.7192778102627306        3.7192778102627315        4.1581997910830459        4.1654293141226768        4.1654293141226857        4.1654293141226866        4.1654943924005963        4.1654943924005998        4.1654943924006007        4.1706180318834551        4.1706180318834551        4.1706180319001582        4.1706831351686784        4.1706831351686819        4.1706831351687992        4.1882315221240578        4.1882315221240622        4.1882677819921650        4.1882677819921659        4.1933597377903791        4.1933597386489510        4.1934202597835961        4.1934209646048703        4.1934558841296345        4.1934564966870465        4.1935261484357733        4.1935261495801885        4.1986089973354019        4.1986089973354037        4.1986452113921846        4.1986452113921855        4.2161577183103454        4.2161577185190975        4.2161982487173137        4.2161982487214473        4.2162633205061244        4.2162633205108264        4.2162946356587554        4.2213452647805516        4.2213464518047656        4.2213869664779224        4.2213869664823189        4.2214520632749757        4.2214520632792496        4.2214833462467523        4.2390004501990592        4.2390004501990601        4.2390367166198368        4.2390367166198377        4.2440961330015607        4.2441286723441518        4.2441618974413853        4.2441891878537632        4.2441898927562303        4.2442248186994336        4.2442253676048001        4.2442254313109018        4.2442950777156305        4.2493779254106752        4.2493779254106760        4.2494141460196140        4.2494141460196149        4.2536810806203746        4.2669671833134171        4.2669671833134206        4.2669671833134206        4.2670322486202226        4.2670322486202235        4.2670322486202252        4.2721559010737620        4.2721559010737638        4.2721559010737664        4.2722209913887692        4.2722209913887710        4.2722209913887710     
         (1.13328666472373431E-006,0.0000000000000000)        (2.93946560260048149E-006,-0.0000000000000000)        (3.52914683466601361E-006,-0.0000000000000000)        (1.79649763971832498E-010,-0.0000000000000000)         (2.50362468000742038E-010,0.0000000000000000)        (1.24552410987586116E-006,-0.0000000000000000)         (2.99190671126948778E-008,0.0000000000000000)         (3.16123025841811522E-027,0.0000000000000000)        (1.13711205886678787E-006,-0.0000000000000000)        (2.66720316102361781E-006,-0.0000000000000000)        (1.36559804108160655E-032,-0.0000000000000000)        (1.24377933385621179E-027,-0.0000000000000000)               (0.0000000000000000,0.0000000000000000)         (1.78548510055652103E-011,0.0000000000000000)         (5.76777061025248577E-012,0.0000000000000000)         (3.47308210596271022E-013,0.0000000000000000)               (0.0000000000000000,0.0000000000000000)        (7.59370546555822725E-013,-0.0000000000000000)         (8.73373068273664080E-023,0.0000000000000000)        (3.86369449656040694E-009,-0.0000000000000000)        (1.22713604529244426E-022,-0.0000000000000000)        (2.66094073055158025E-033,-0.0000000000000000)        (3.51134105311187556E-017,-0.0000000000000000)         (2.09592878796171033E-033,0.0000000000000000)        (1.48873575877699125E-015,-0.0000000000000000)         (3.81906921397709106E-030,0.0000000000000000)        (3.07609850277852352E-016,-0.0000000000000000)        (1.07942678402631553E-027,-0.0000000000000000)        (1.45268235505580921E-014,-0.0000000000000000)        (2.56531022641405068E-025,-0.0000000000000000)         (7.68142841656345641E-019,0.0000000000000000)         (1.64548746971798922E-035,0.0000000000000000)        (1.20502549798386914E-015,-0.0000000000000000)         (3.52578809738374987E-025,0.0000000000000000)         (9.48515305838568891E-020,0.0000000000000000)        (7.12099112903956724E-034,-0.0000000000000000)         (9.17538178235872012E-019,0.0000000000000000)        (7.88934593974556152E-042,-0.0000000000000000)        (4.71415290835953120E-019,-0.0000000000000000)        (1.16661991643215005E-034,-0.0000000000000000)         (1.11979623965359947E-019,0.0000000000000000)         (1.36165935440719300E-020,0.0000000000000000)        (6.00685967695981704E-020,-0.0000000000000000)         (2.78086434816680447E-019,0.0000000000000000)         (7.38819427090422140E-019,0.0000000000000000)        (1.32923880911055994E-026,-0.0000000000000000)        (1.33649394899178512E-025,-0.0000000000000000)        (1.09854403562322024E-024,-0.0000000000000000)         (2.02189342442298711E-034,0.0000000000000000)         (4.48789964641504879E-025,0.0000000000000000)        (4.22034627993185041E-044,-0.0000000000000000)         (2.15135063364177376E-022,0.0000000000000000)         (2.28059245774432690E-035,0.0000000000000000)         (2.10058371643567925E-030,0.0000000000000000)         (6.31353710328808498E-029,0.0000000000000000)        (5.37678800029289662E-036,-0.0000000000000000)        (7.77504491698500656E-030,-0.0000000000000000)         (3.60200848430166486E-028,0.0000000000000000)        (3.36184514242642275E-035,-0.0000000000000000)         (5.38119546987759153E-034,0.0000000000000000)        (2.04433686036844920E-029,-0.0000000000000000)        (9.74879967759633913E-035,-0.0000000000000000)               (0.0000000000000000,0.0000000000000000)         (6.36365287231553081E-035,0.0000000000000000)         (1.38611356440047024E-032,0.0000000000000000)               (0.0000000000000000,0.0000000000000000)        (2.62511201884895684E-033,-0.0000000000000000)         (9.31148635562137776E-044,0.0000000000000000)         (1.00926812522576787E-033,0.0000000000000000)         (8.63077938966966315E-043,0.0000000000000000)        (1.70939625694950204E-034,-0.0000000000000000)        (2.22508870330771387E-043,-0.0000000000000000)        (8.23653024758339570E-034,-0.0000000000000000)        (1.90032033772458581E-034,-0.0000000000000000)        (1.24888206875678986E-037,-0.0000000000000000)        (5.45393533209951191E-008,-0.0000000000000000)        (6.14793659708265551E-007,-0.0000000000000000)        (5.21881797832603744E-002,-0.0000000000000000)        (1.13841658647841786E-003,-0.0000000000000000)         (2.68956165087722967E-009,0.0000000000000000)         (2.10194971633915437E-009,0.0000000000000000)         (1.07127242210046464E-008,0.0000000000000000)         (6.30952690706504556E-008,0.0000000000000000)               (0.0000000000000000,0.0000000000000000)         (1.02974245219251470E-013,0.0000000000000000)        (1.06293069669922482E-011,-0.0000000000000000)        (5.21023324541013970E-018,-0.0000000000000000)        (1.17532968385239025E-013,-0.0000000000000000)         (1.03535728462973041E-016,0.0000000000000000)        (1.68577015713559831E-012,-0.0000000000000000)         (2.14311833283430323E-014,0.0000000000000000)         (3.87790697186214109E-012,0.0000000000000000)         (3.18083946106226353E-021,0.0000000000000000)         (5.21386494429022128E-018,0.0000000000000000)        (5.50722967467342088E-018,-0.0000000000000000)         (8.84856278082183382E-021,0.0000000000000000)        (6.68551169082300432E-016,-0.0000000000000000)        (8.43481882721163550E-023,-0.0000000000000000)         (3.39449107661440309E-024,0.0000000000000000)        (3.20124025957828186E-023,-0.0000000000000000)         (6.94498922969218420E-022,0.0000000000000000)        (2.70623059984017376E-023,-0.0000000000000000)        (1.40439237167638737E-028,-0.0000000000000000)         (2.25078247041049687E-026,0.0000000000000000)        (2.40377935354305706E-029,-0.0000000000000000)        (1.83835756787964413E-027,-0.0000000000000000)        (4.44060484746814837E-027,-0.0000000000000000)        (5.70527303236758265E-031,-0.0000000000000000)        (5.53116606192438621E-032,-0.0000000000000000)         (1.75232044353308775E-031,0.0000000000000000)        (1.00569025684709789E-009,-0.0000000000000000)        (6.80146538217120281E-026,-0.0000000000000000)         (6.63983483349374608E-003,0.0000000000000000)        (2.14887338987195770E-011,-0.0000000000000000)        (2.59370505396504953E-009,-0.0000000000000000)        (2.50362282783347056E-015,-0.0000000000000000)         (6.04116791215026174E-013,0.0000000000000000)        (6.81608056866048884E-022,-0.0000000000000000)         (3.53849568621180809E-015,0.0000000000000000)        (2.02357438513446922E-013,-0.0000000000000000)         (1.65465171189769029E-014,0.0000000000000000)        (8.80090275090667453E-013,-0.0000000000000000)        (8.96040743806281940E-024,-0.0000000000000000)         (1.56713411062236792E-018,0.0000000000000000)         (8.49762098373427352E-019,0.0000000000000000)        (5.29155313956154455E-023,-0.0000000000000000)        (9.90285430992730715E-017,-0.0000000000000000)        (2.70261533406250604E-016,-0.0000000000000000)        (4.43575075954308693E-025,-0.0000000000000000)        (6.77958402808812768E-022,-0.0000000000000000)        (1.57997844249706046E-023,-0.0000000000000000)         (3.03785479350746772E-030,0.0000000000000000)        (4.33177480381646332E-026,-0.0000000000000000)         (1.54316730392711193E-030,0.0000000000000000)         (7.96723401400692015E-027,0.0000000000000000)        (1.49345176674851616E-026,-0.0000000000000000)        (7.49348996372003986E-035,-0.0000000000000000)         (1.52911314770879195E-031,0.0000000000000000)         (4.37396970357089836E-035,0.0000000000000000)         (1.01087679733470317E-033,0.0000000000000000)        (1.68265936339009858E-030,-0.0000000000000000)        (3.53668719211282073E-036,-0.0000000000000000)        (1.38252784771417412E-034,-0.0000000000000000)        (6.87550559775976818E-032,-0.0000000000000000)        (8.16579380986259340E-033,-0.0000000000000000)        (6.59868748993747792E-008,-0.0000000000000000)         (2.52120346121003811E-019,0.0000000000000000)        (3.41020098566517635E-008,-0.0000000000000000)        (2.96721289759293877E-007,-0.0000000000000000)         (4.61035743353435278E-037,0.0000000000000000)        (6.61553475627473853E-014,-0.0000000000000000)        (1.38897717618037692E-031,-0.0000000000000000)         (1.55592231073875582E-010,0.0000000000000000)        (1.10729224844268619E-010,-0.0000000000000000)         (2.37899545465265189E-017,0.0000000000000000)        (2.37010406274164442E-016,-0.0000000000000000)        (1.18867776416906651E-016,-0.0000000000000000)        (1.11862169012596079E-017,-0.0000000000000000)         (3.46577567111740892E-020,0.0000000000000000)        (7.29752781645234389E-022,-0.0000000000000000)        (1.61005634247411921E-020,-0.0000000000000000)        (2.03356002320874330E-026,-0.0000000000000000)         (1.02938874649965016E-028,0.0000000000000000)        (2.86115631757752501E-024,-0.0000000000000000)        (2.38838909168050383E-007,-0.0000000000000000)        (9.15383773636835978E-014,-0.0000000000000000)         (1.80457683395463035E-007,0.0000000000000000)         (1.19701463136583460E-007,0.0000000000000000)        (4.82270962396678062E-007,-0.0000000000000000)        (1.15361571175898010E-012,-0.0000000000000000)         (2.46081824918733646E-010,0.0000000000000000)         (8.23177844832260212E-013,0.0000000000000000)        (1.41119189346272498E-009,-0.0000000000000000)        (7.64826957576083663E-016,-0.0000000000000000)         (2.93055241552310690E-015,0.0000000000000000)         (4.98331094824894366E-021,0.0000000000000000)        (6.05464264680185006E-019,-0.0000000000000000)        (2.43121118771207896E-020,-0.0000000000000000)         (3.84909598760239492E-019,0.0000000000000000)        (3.82625835727447501E-021,-0.0000000000000000)         (1.26003670723940480E-009,0.0000000000000000)         (6.92019390194757157E-023,0.0000000000000000)         (3.34880297663683264E-021,0.0000000000000000)        (9.77008912991003458E-013,-0.0000000000000000)         (1.15370721398560091E-019,0.0000000000000000)        (2.23893149451314318E-019,-0.0000000000000000)        (6.93466658853687883E-023,-0.0000000000000000)         (3.50432182488304011E-027,0.0000000000000000)         (3.35263063866457685E-023,0.0000000000000000)         (5.99576315331609684E-029,0.0000000000000000)         (2.52787024072843996E-027,0.0000000000000000)        (1.84860128359642367E-033,-0.0000000000000000)        (1.67938081561533143E-036,-0.0000000000000000)         (2.79637531622236657E-035,0.0000000000000000)         (1.07070020789570669E-035,0.0000000000000000)         (2.20365849017557775E-030,0.0000000000000000)         (1.45600290199599295E-003,0.0000000000000000)              (0.43460795135313091,0.0000000000000000)         (1.88754481047910614E-007,0.0000000000000000)        (4.33928016216272576E-007,-0.0000000000000000)        (5.90346195129204510E-012,-0.0000000000000000)        (1.25639119229433723E-010,-0.0000000000000000)         (8.50752230305996343E-012,0.0000000000000000)         (1.12555900249221074E-011,0.0000000000000000)        (4.24669056306162295E-011,-0.0000000000000000)         (8.33463071943836998E-020,0.0000000000000000)         (5.01810160464323587E-017,0.0000000000000000)        (3.83717681268492483E-024,-0.0000000000000000)         (8.74191547899805385E-016,0.0000000000000000)        (9.51437054407824593E-015,-0.0000000000000000)        (2.23542322271107558E-022,-0.0000000000000000)         (1.11788625904871416E-020,0.0000000000000000)         (5.46728213823760824E-025,0.0000000000000000)        (2.57339927682238223E-025,-0.0000000000000000)        (7.41250642979041460E-028,-0.0000000000000000)        (4.11724385017025203E-030,-0.0000000000000000)        (1.53625048934904005E-029,-0.0000000000000000)         (1.66316708493696080E-030,0.0000000000000000)         (2.32388202748648741E-009,0.0000000000000000)        (3.52272177167445820E-003,-0.0000000000000000)        (1.91594055893038448E-011,-0.0000000000000000)         (6.65563513881845174E-009,0.0000000000000000)         (2.85037371460794651E-017,0.0000000000000000)         (7.54755981425663707E-013,0.0000000000000000)         (2.50538205906699273E-016,0.0000000000000000)        (1.70959147294262378E-013,-0.0000000000000000)        (3.39832085511087505E-013,-0.0000000000000000)        (6.09323306464622802E-019,-0.0000000000000000)         (3.17269826768163682E-019,0.0000000000000000)        (8.52449253259852014E-017,-0.0000000000000000)        (1.47917443043603997E-022,-0.0000000000000000)        (9.51956263250386956E-027,-0.0000000000000000)         (1.50397628766788860E-011,0.0000000000000000)         (1.88581852519206572E-005,0.0000000000000000)        (3.80288820415421093E-013,-0.0000000000000000)        (3.80903633554438832E-012,-0.0000000000000000)        (1.04910590491818568E-022,-0.0000000000000000)        (9.16922349344921733E-017,-0.0000000000000000)         (7.08369214791603809E-016,0.0000000000000000)        (1.17691408363947017E-016,-0.0000000000000000)        (3.85448770830807210E-016,-0.0000000000000000)        (2.47468600337115769E-022,-0.0000000000000000)        (3.32214334862847254E-020,-0.0000000000000000)        (1.82396181864183339E-019,-0.0000000000000000)        (9.10008940338811745E-026,-0.0000000000000000)         (8.47877009579804664E-031,0.0000000000000000)        (7.78495484642945228E-030,-0.0000000000000000)        (2.65002115746625729E-035,-0.0000000000000000)        (1.52299742028702464E-034,-0.0000000000000000)        (1.34495436525846664E-033,-0.0000000000000000)               (0.0000000000000000,0.0000000000000000)        (8.16444277123360609E-008,-0.0000000000000000)        (8.89337805118695198E-012,-0.0000000000000000)        (8.64913267609817664E-008,-0.0000000000000000)         (2.05473256739410296E-008,0.0000000000000000)        (1.60075628443475783E-007,-0.0000000000000000)        (3.24555791195814476E-013,-0.0000000000000000)        (1.46740532633065054E-014,-0.0000000000000000)        (7.45885623469598559E-011,-0.0000000000000000)        (4.25227664892764387E-010,-0.0000000000000000)         (2.49802927895638398E-016,0.0000000000000000)         (3.45533227261954740E-016,0.0000000000000000)         (1.64827856746879520E-019,0.0000000000000000)        (2.60633323364787068E-021,-0.0000000000000000)        (8.92901415835162685E-020,-0.0000000000000000)         (6.24335575295305295E-023,0.0000000000000000)         (2.08365637059078226E-023,0.0000000000000000)         (4.16894128105451011E-007,0.0000000000000000)         (2.05025143759849501E-007,0.0000000000000000)        (3.17106042529853269E-008,-0.0000000000000000)        (6.60178615050169482E-013,-0.0000000000000000)         (1.62976055873059248E-010,0.0000000000000000)        (3.10898941014583956E-014,-0.0000000000000000)        (3.35732260229862947E-016,-0.0000000000000000)        (2.00309765383098472E-017,-0.0000000000000000)        (2.28819946270031841E-020,-0.0000000000000000)         (9.97060798918400867E-021,0.0000000000000000)        (1.63930106643399079E-020,-0.0000000000000000)        (1.27814627640194130E-026,-0.0000000000000000)        (2.61754516226500841E-024,-0.0000000000000000)        (2.88405363287994992E-030,-0.0000000000000000)         (1.79542490436274596E-036,0.0000000000000000)         (3.64249030049830904E-034,0.0000000000000000)         (1.71989534963181334E-034,0.0000000000000000)        (6.23334791322445692E-009,-0.0000000000000000)        (3.54916610276331001E-010,-0.0000000000000000)         (3.10135524307566558E-009,0.0000000000000000)         (1.36067028612087924E-014,0.0000000000000000)         (1.02527000327052155E-013,0.0000000000000000)         (2.40368948307464546E-012,0.0000000000000000)        (6.85095076017589907E-019,-0.0000000000000000)        (7.70069096493399949E-018,-0.0000000000000000)        (4.93562496981013453E-019,-0.0000000000000000)         (6.92399936127669877E-026,0.0000000000000000)         (5.09773740984303448E-022,0.0000000000000000)         (2.27090145385527355E-022,0.0000000000000000)        (4.50285684109494131E-022,-0.0000000000000000)         (3.94532691912636812E-028,0.0000000000000000)         (7.15284503593869849E-026,0.0000000000000000)        (8.56462402721261262E-028,-0.0000000000000000)        (1.21813117153355687E-031,-0.0000000000000000)        (3.72337994917731075E-035,-0.0000000000000000)         (6.29238469536963922E-034,0.0000000000000000)         (2.95382765698124852E-034,0.0000000000000000)               (0.0000000000000000,0.0000000000000000)        (1.45800780304960783E-013,-0.0000000000000000)         (3.73702182750620955E-010,0.0000000000000000)         (4.41918816194720417E-014,0.0000000000000000)         (6.19505195659716313E-014,0.0000000000000000)         (4.35451294248330356E-017,0.0000000000000000)         (1.20929308326980514E-016,0.0000000000000000)        (9.12002636215594273E-017,-0.0000000000000000)        (3.01164889348241743E-016,-0.0000000000000000)        (4.12375402485340052E-016,-0.0000000000000000) 