            #Ek_l1_s1              Vk_l1_s1
  -6.480077322760E-01    1.946022315898E-01
  -2.541159670921E-02    8.680633953381E-05
  -3.076151118964E-03    2.269632444821E-03
   2.958427668627E-03    1.854047357948E-03
   2.535730297677E-02   -5.241320863559E-05
   6.485789802516E-01    1.946787754359E-01
