            #Ek_l1_s1              Dk_l1_s1              Vk_l1_s1
  -2.034201849906E+00    2.454313885220E-01   -6.346565105883E-05
  -1.006032427703E+00    1.903837724182E-01   -3.807102303846E-04
  -1.300392304333E-01    2.228327056404E+00    3.512723427081E-01
   1.300392304333E-01    2.228327056404E+00    3.512723427081E-01
   1.006032427703E+00    1.903837724182E-01   -3.807102303846E-04
   2.034201849906E+00    2.454313885220E-01   -6.346565105883E-05
